data_global
_chemical_name_mineral 'IMA2009-083'
loop_
_publ_author_name
'Cannon F C'
_journal_name_full 'Materials Research Society Symposia Proceedings'
_journal_volume 22 
_journal_year 1984
_journal_page_first 113
_journal_page_last 116
_publ_section_title
;
 Effect of high pressure on the structure of AB3-type layered compounds
;
_database_code_amcsd 0014383
_chemical_compound_source 'Synthetic'
_chemical_formula_sum 'Ni3 Sn'
_cell_length_a 3.738
_cell_length_b 3.738
_cell_length_c 3.738
_cell_angle_alpha 90
_cell_angle_beta 90
_cell_angle_gamma 90
_cell_volume 52.230
_exptl_crystal_density_diffrn      9.372
_symmetry_space_group_name_H-M 'P m -3 m'
loop_
_space_group_symop_operation_xyz
  'x,y,z'
  'z,-x,y'
  '-y,z,-x'
  'x,-y,z'
  '-z,x,-y'
  'y,-z,x'
  '-x,y,-z'
  'x,-z,-y'
  '-z,y,x'
  'y,-x,-z'
  '-x,z,y'
  'z,-y,-x'
  '-y,x,z'
  'x,z,y'
  '-z,-y,-x'
  'y,x,z'
  '-x,-z,-y'
  'z,y,x'
  '-y,-x,-z'
  'z,x,-y'
  '-y,-z,x'
  'x,y,-z'
  '-z,-x,y'
  'y,z,-x'
  '-x,-y,z'
  '-z,x,y'
  'y,-z,-x'
  '-x,y,z'
  'z,-x,-y'
  '-y,z,x'
  'x,-y,-z'
  '-x,z,-y'
  'z,-y,x'
  '-y,x,-z'
  'x,-z,y'
  '-z,y,-x'
  'y,-x,z'
  '-x,-z,y'
  'z,y,-x'
  '-y,-x,z'
  'x,z,-y'
  '-z,-y,x'
  'y,x,-z'
  '-z,-x,-y'
  'y,z,x'
  '-x,-y,-z'
  'z,x,y'
  '-y,-z,-x'
loop_
_atom_site_label
_atom_site_fract_x
_atom_site_fract_y
_atom_site_fract_z
Ni   0.00000   0.50000   0.50000
Sn   0.00000   0.00000   0.00000
