data_global
_chemical_name_mineral 'Hydrozincite'
loop_
_publ_author_name
'Ghose S'
_journal_name_full 'Acta Crystallographica'
_journal_volume 17 
_journal_year 1964
_journal_page_first 1051
_journal_page_last 1057
_publ_section_title
;
 The crystal structure of hydrozincite, Zn5(OH)6(CO3)2
;
_database_code_amcsd 0009288
_chemical_compound_source 'Goodsprings, Nevada, USA'
_chemical_formula_sum 'Zn5 C2 O12 H6'
_cell_length_a 13.62
_cell_length_b 6.30
_cell_length_c 5.42
_cell_angle_alpha 90
_cell_angle_beta 95.833
_cell_angle_gamma 90
_cell_volume 462.661
_exptl_crystal_density_diffrn      3.941
_symmetry_space_group_name_H-M 'C 2/m'
loop_
_space_group_symop_operation_xyz
  'x,y,z'
  '1/2+x,1/2+y,z'
  'x,-y,z'
  '1/2+x,1/2-y,z'
  '-x,y,-z'
  '1/2-x,1/2+y,-z'
  '-x,-y,-z'
  '1/2-x,1/2-y,-z'
loop_
_atom_site_label
_atom_site_fract_x
_atom_site_fract_y
_atom_site_fract_z
_atom_site_U_iso_or_equiv
Zn1   0.00000   0.00000   0.00000   0.00747
Zn2   0.00000   0.26300   0.50000   0.00709
Zn3   0.12900   0.50000   0.03800   0.00849
C   0.32200   0.50000   0.30900   0.01140
O1   0.42100   0.50000   0.31800   0.00874
O2   0.26600   0.50000   0.06900   0.01267
O3   0.27500   0.50000   0.50000   0.01140
O-H1   0.41000   0.00000   0.32400   0.01026
O-H2   0.07800   0.24500   0.19800   0.01026
