data_global
_chemical_name_mineral 'IMA2010-039'
loop_
_publ_author_name
'Baldinozzi G'
'Berar J'
'Calvarin G'
_journal_name_full 'Materials Science Forum'
_journal_volume 278 
_journal_year 1998
_journal_page_first 680
_journal_page_last 685
_publ_section_title
;
 Rietveld refinement of two-phase Zr-doped Y2 O3
 _cod_database_code 1009013
;
_database_code_amcsd 0016875
_chemical_formula_sum 'Y2 O3'
_cell_length_a 10.6056
_cell_length_b 10.6056
_cell_length_c 10.6056
_cell_angle_alpha 90
_cell_angle_beta 90
_cell_angle_gamma 90
_cell_volume 1192.905
_exptl_crystal_density_diffrn      5.029
_symmetry_space_group_name_H-M 'I a -3'
loop_
_space_group_symop_operation_xyz
  'x,y,z'
  '1/2+x,1/2+y,1/2+z'
  '1/2+z,x,1/2-y'
  '+z,1/2+x,-y'
  '1/2+z,-x,y'
  '+z,1/2-x,1/2+y'
  '-z,x,1/2+y'
  '1/2-z,1/2+x,+y'
  '-z,-x,-y'
  '1/2-z,1/2-x,1/2-y'
  '1/2+y,1/2-z,-x'
  '+y,-z,1/2-x'
  '-y,1/2-z,x'
  '1/2-y,-z,1/2+x'
  '1/2-y,z,-x'
  '-y,1/2+z,1/2-x'
  'y,z,x'
  '1/2+y,1/2+z,1/2+x'
  'x,1/2-y,1/2+z'
  '1/2+x,-y,+z'
  '-x,y,1/2+z'
  '1/2-x,1/2+y,+z'
  'x,1/2+y,-z'
  '1/2+x,+y,1/2-z'
  '-x,-y,-z'
  '1/2-x,1/2-y,1/2-z'
  '1/2-z,-x,1/2+y'
  '-z,1/2-x,+y'
  '1/2-z,x,-y'
  '-z,1/2+x,1/2-y'
  'z,-x,1/2-y'
  '1/2+z,1/2-x,-y'
  'z,x,y'
  '1/2+z,1/2+x,1/2+y'
  '1/2-y,1/2+z,x'
  '-y,+z,1/2+x'
  'y,1/2+z,-x'
  '1/2+y,+z,1/2-x'
  '1/2+y,-z,x'
  '+y,1/2-z,1/2+x'
  '-y,-z,-x'
  '1/2-y,1/2-z,1/2-x'
  '-x,1/2+y,1/2-z'
  '1/2-x,+y,-z'
  'x,-y,1/2-z'
  '1/2+x,1/2-y,-z'
  '-x,1/2-y,z'
  '1/2-x,-y,1/2+z'
loop_
_atom_site_label
_atom_site_fract_x
_atom_site_fract_y
_atom_site_fract_z
Y1   0.96742   0.00000   0.25000
Y2   0.25000   0.25000   0.25000
O1   0.39072   0.15190   0.38016
