data_global
_chemical_name_mineral 'Aluminoceladonite'
loop_
_publ_author_name
'Drits V A'
'Zviagina B B'
'McCarty D K'
'Salyn A L'
_journal_name_full 'American Mineralogist'
_journal_volume 95 
_journal_year 2010
_journal_page_first 348
_journal_page_last 361
_publ_section_title
;
 Factors responsible for crystal-chemical variations in the solid solutions
 from illite to aluminoceladonite and from glauconite to celadonite
 Sample Name: 602-1
;
_database_code_amcsd 0005021
_chemical_compound_source 'Twin Creek formation, Wyoming'
_chemical_formula_sum 'K Al2 Si4 O12 H2'
_cell_length_a 5.2141
_cell_length_b 9.0082
_cell_length_c 10.108
_cell_angle_alpha 90
_cell_angle_beta 101.12
_cell_angle_gamma 90
_cell_volume 465.856
_exptl_crystal_density_diffrn      2.847
_symmetry_space_group_name_H-M 'C 2/m'
loop_
_space_group_symop_operation_xyz
  'x,y,z'
  '1/2+x,1/2+y,z'
  'x,-y,z'
  '1/2+x,1/2-y,z'
  '-x,y,-z'
  '1/2-x,1/2+y,-z'
  '-x,-y,-z'
  '1/2-x,1/2-y,-z'
loop_
_atom_site_label
_atom_site_fract_x
_atom_site_fract_y
_atom_site_fract_z
K   0.00000   0.50000   0.50000
Al   0.50000   0.16670   0.00000
Si   0.41820   0.32920   0.27160
O1   0.35440   0.31690   0.10910
O2   0.47770   0.50000   0.32050
O3   0.67790   0.23480   0.33690
O-H   0.41980   0.00000   0.10640
