data_global
_chemical_name_mineral 'Aurostibite'
loop_
_publ_author_name
'Graham A R'
'Kaiman S'
_journal_name_full 'American Mineralogist'
_journal_volume 37 
_journal_year 1952
_journal_page_first 461
_journal_page_last 469
_publ_section_title
;
 Aurostibite, AuSb2; A new mineral in the pyrite group
;
_database_code_amcsd 0000055
_chemical_compound_source 'Giant Yellowknife mine, Northwest Territories, Canada'
_chemical_formula_sum 'Au Sb2'
_cell_length_a 6.649
_cell_length_b 6.649
_cell_length_c 6.649
_cell_angle_alpha 90
_cell_angle_beta 90
_cell_angle_gamma 90
_cell_volume 293.947
_exptl_crystal_density_diffrn      9.953
_symmetry_space_group_name_H-M 'P a -3'
loop_
_space_group_symop_operation_xyz
  'x,y,z'
  '1/2+z,x,1/2-y'
  'z,1/2-x,1/2+y'
  '1/2-z,1/2+x,y'
  '-z,-x,-y'
  '1/2+y,1/2-z,-x'
  '1/2-y,-z,1/2+x'
  '-y,1/2+z,1/2-x'
  'y,z,x'
  'x,1/2-y,1/2+z'
  '1/2-x,1/2+y,z'
  '1/2+x,y,1/2-z'
  '-x,-y,-z'
  '1/2-z,-x,1/2+y'
  '-z,1/2+x,1/2-y'
  '1/2+z,1/2-x,-y'
  'z,x,y'
  '1/2-y,1/2+z,x'
  '1/2+y,z,1/2-x'
  'y,1/2-z,1/2+x'
  '-y,-z,-x'
  '-x,1/2+y,1/2-z'
  '1/2+x,1/2-y,-z'
  '1/2-x,-y,1/2+z'
loop_
_atom_site_label
_atom_site_fract_x
_atom_site_fract_y
_atom_site_fract_z
Au   0.00000   0.00000   0.00000
Sb   0.38600   0.38600   0.38600
