data_global
_chemical_name_mineral 'BC-8'
loop_
_publ_author_name
'Fayos J'
_journal_name_full 'Journal of Solid State Chemistry'
_journal_volume 148 
_journal_year 1999
_journal_page_first 278
_journal_page_last 285
_publ_section_title
;
 Possible 3D carbon structures as progressive intermediates in graphite
 to diamond phase transition
 Note: mathematical model, phase: BC-8
;
_database_code_amcsd 0013988
_chemical_formula_sum 'C'
_cell_length_a 4.293
_cell_length_b 4.293
_cell_length_c 4.293
_cell_angle_alpha 90
_cell_angle_beta 90
_cell_angle_gamma 90
_cell_volume 79.119
_exptl_crystal_density_diffrn      4.033
_symmetry_space_group_name_H-M 'I a -3'
loop_
_space_group_symop_operation_xyz
  'x,y,z'
  '1/2+x,1/2+y,1/2+z'
  '1/2+z,x,1/2-y'
  '+z,1/2+x,-y'
  '1/2+z,-x,y'
  '+z,1/2-x,1/2+y'
  '-z,x,1/2+y'
  '1/2-z,1/2+x,+y'
  '-z,-x,-y'
  '1/2-z,1/2-x,1/2-y'
  '1/2+y,1/2-z,-x'
  '+y,-z,1/2-x'
  '-y,1/2-z,x'
  '1/2-y,-z,1/2+x'
  '1/2-y,z,-x'
  '-y,1/2+z,1/2-x'
  'y,z,x'
  '1/2+y,1/2+z,1/2+x'
  'x,1/2-y,1/2+z'
  '1/2+x,-y,+z'
  '-x,y,1/2+z'
  '1/2-x,1/2+y,+z'
  'x,1/2+y,-z'
  '1/2+x,+y,1/2-z'
  '-x,-y,-z'
  '1/2-x,1/2-y,1/2-z'
  '1/2-z,-x,1/2+y'
  '-z,1/2-x,+y'
  '1/2-z,x,-y'
  '-z,1/2+x,1/2-y'
  'z,-x,1/2-y'
  '1/2+z,1/2-x,-y'
  'z,x,y'
  '1/2+z,1/2+x,1/2+y'
  '1/2-y,1/2+z,x'
  '-y,+z,1/2+x'
  'y,1/2+z,-x'
  '1/2+y,+z,1/2-x'
  '1/2+y,-z,x'
  '+y,1/2-z,1/2+x'
  '-y,-z,-x'
  '1/2-y,1/2-z,1/2-x'
  '-x,1/2+y,1/2-z'
  '1/2-x,+y,-z'
  'x,-y,1/2-z'
  '1/2+x,1/2-y,-z'
  '-x,1/2-y,z'
  '1/2-x,-y,1/2+z'
loop_
_atom_site_label
_atom_site_fract_x
_atom_site_fract_y
_atom_site_fract_z
C   0.14640   0.14640   0.14640
