data_global
_chemical_name_mineral 'Cadmoindite'
loop_
_publ_author_name
'Hahn H'
'Klingler W'
_journal_name_full 'Zeitschrift fur Anorganische und Allgemeine Chemie'
_journal_volume 263 
_journal_year 1950
_journal_page_first 177
_journal_page_last 190
_publ_section_title
;
 Untersuchungen uber ternare chalkogenide. I. Uber die
 kristallstruktur einiger ternaerer sulfide, die sich vom In2S3 ableiten
;
_database_code_amcsd 0015766
_chemical_compound_source 'Synthetic'
_chemical_formula_sum 'Cd In2 S4'
_cell_length_a 10.797
_cell_length_b 10.797
_cell_length_c 10.797
_cell_angle_alpha 90
_cell_angle_beta 90
_cell_angle_gamma 90
_cell_volume 1258.662
_exptl_crystal_density_diffrn      4.964
_symmetry_space_group_name_H-M 'F d -3 m'
loop_
_space_group_symop_operation_xyz
  'x,y,z'
  'x,1/2+y,1/2+z'
  '1/2+x,y,1/2+z'
  '1/2+x,1/2+y,z'
  '3/4+z,3/4-x,1/4+y'
  '3/4+z,1/4-x,3/4+y'
  '1/4+z,3/4-x,3/4+y'
  '1/4+z,1/4-x,1/4+y'
  '-y,1/2+z,1/2-x'
  '-y,+z,-x'
  '1/2-y,1/2+z,-x'
  '1/2-y,+z,1/2-x'
  '3/4+x,3/4-y,1/4+z'
  '3/4+x,1/4-y,3/4+z'
  '1/4+x,3/4-y,3/4+z'
  '1/4+x,1/4-y,1/4+z'
  '-z,1/2+x,1/2-y'
  '-z,+x,-y'
  '1/2-z,1/2+x,-y'
  '1/2-z,+x,1/2-y'
  '3/4+y,3/4-z,1/4+x'
  '3/4+y,1/4-z,3/4+x'
  '1/4+y,3/4-z,3/4+x'
  '1/4+y,1/4-z,1/4+x'
  '-x,1/2+y,1/2-z'
  '-x,+y,-z'
  '1/2-x,1/2+y,-z'
  '1/2-x,+y,1/2-z'
  '1/2+x,-z,1/2-y'
  '1/2+x,1/2-z,-y'
  '+x,-z,-y'
  '+x,1/2-z,1/2-y'
  '3/4-z,3/4+y,1/4+x'
  '3/4-z,1/4+y,3/4+x'
  '1/4-z,3/4+y,3/4+x'
  '1/4-z,1/4+y,1/4+x'
  '1/2+y,-x,1/2-z'
  '1/2+y,1/2-x,-z'
  '+y,-x,-z'
  '+y,1/2-x,1/2-z'
  '3/4-x,3/4+z,1/4+y'
  '3/4-x,1/4+z,3/4+y'
  '1/4-x,3/4+z,3/4+y'
  '1/4-x,1/4+z,1/4+y'
  '1/2+z,-y,1/2-x'
  '1/2+z,1/2-y,-x'
  '+z,-y,-x'
  '+z,1/2-y,1/2-x'
  '3/4-y,3/4+x,1/4+z'
  '3/4-y,1/4+x,3/4+z'
  '1/4-y,3/4+x,3/4+z'
  '1/4-y,1/4+x,1/4+z'
  'x,1/2+z,1/2+y'
  'x,+z,+y'
  '1/2+x,1/2+z,+y'
  '1/2+x,+z,1/2+y'
  '1/4-z,3/4-y,3/4-x'
  '1/4-z,1/4-y,1/4-x'
  '3/4-z,3/4-y,1/4-x'
  '3/4-z,1/4-y,3/4-x'
  'y,1/2+x,1/2+z'
  'y,+x,+z'
  '1/2+y,1/2+x,+z'
  '1/2+y,+x,1/2+z'
  '1/4-x,3/4-z,3/4-y'
  '1/4-x,1/4-z,1/4-y'
  '3/4-x,3/4-z,1/4-y'
  '3/4-x,1/4-z,3/4-y'
  'z,1/2+y,1/2+x'
  'z,+y,+x'
  '1/2+z,1/2+y,+x'
  '1/2+z,+y,1/2+x'
  '1/4-y,3/4-x,3/4-z'
  '1/4-y,1/4-x,1/4-z'
  '3/4-y,3/4-x,1/4-z'
  '3/4-y,1/4-x,3/4-z'
  '3/4+z,1/4+x,3/4-y'
  '3/4+z,3/4+x,1/4-y'
  '1/4+z,1/4+x,1/4-y'
  '1/4+z,3/4+x,3/4-y'
  '-y,1/2-z,1/2+x'
  '-y,-z,+x'
  '1/2-y,1/2-z,+x'
  '1/2-y,-z,1/2+x'
  '3/4+x,1/4+y,3/4-z'
  '3/4+x,3/4+y,1/4-z'
  '1/4+x,1/4+y,1/4-z'
  '1/4+x,3/4+y,3/4-z'
  '-z,1/2-x,1/2+y'
  '-z,-x,+y'
  '1/2-z,1/2-x,+y'
  '1/2-z,-x,1/2+y'
  '3/4+y,1/4+z,3/4-x'
  '3/4+y,3/4+z,1/4-x'
  '1/4+y,1/4+z,1/4-x'
  '1/4+y,3/4+z,3/4-x'
  '-x,1/2-y,1/2+z'
  '-x,-y,+z'
  '1/2-x,1/2-y,+z'
  '1/2-x,-y,1/2+z'
  '1/4-z,3/4+x,3/4+y'
  '1/4-z,1/4+x,1/4+y'
  '3/4-z,3/4+x,1/4+y'
  '3/4-z,1/4+x,3/4+y'
  'y,-z,-x'
  'y,1/2-z,1/2-x'
  '1/2+y,-z,1/2-x'
  '1/2+y,1/2-z,-x'
  '1/4-x,3/4+y,3/4+z'
  '1/4-x,1/4+y,1/4+z'
  '3/4-x,3/4+y,1/4+z'
  '3/4-x,1/4+y,3/4+z'
  'z,-x,-y'
  'z,1/2-x,1/2-y'
  '1/2+z,-x,1/2-y'
  '1/2+z,1/2-x,-y'
  '1/4-y,3/4+z,3/4+x'
  '1/4-y,1/4+z,1/4+x'
  '3/4-y,3/4+z,1/4+x'
  '3/4-y,1/4+z,3/4+x'
  'x,-y,-z'
  'x,1/2-y,1/2-z'
  '1/2+x,-y,1/2-z'
  '1/2+x,1/2-y,-z'
  '1/2-x,1/2+z,-y'
  '1/2-x,+z,1/2-y'
  '-x,1/2+z,1/2-y'
  '-x,+z,-y'
  '1/4+z,3/4-y,3/4+x'
  '1/4+z,1/4-y,1/4+x'
  '3/4+z,3/4-y,1/4+x'
  '3/4+z,1/4-y,3/4+x'
  '1/2-y,1/2+x,-z'
  '1/2-y,+x,1/2-z'
  '-y,1/2+x,1/2-z'
  '-y,+x,-z'
  '1/4+x,3/4-z,3/4+y'
  '1/4+x,1/4-z,1/4+y'
  '3/4+x,3/4-z,1/4+y'
  '3/4+x,1/4-z,3/4+y'
  '1/2-z,1/2+y,-x'
  '1/2-z,+y,1/2-x'
  '-z,1/2+y,1/2-x'
  '-z,+y,-x'
  '1/4+y,3/4-x,3/4+z'
  '1/4+y,1/4-x,1/4+z'
  '3/4+y,3/4-x,1/4+z'
  '3/4+y,1/4-x,3/4+z'
  '-x,-z,y'
  '-x,1/2-z,1/2+y'
  '1/2-x,-z,1/2+y'
  '1/2-x,1/2-z,y'
  '3/4+z,3/4+y,1/4-x'
  '3/4+z,1/4+y,3/4-x'
  '1/4+z,3/4+y,3/4-x'
  '1/4+z,1/4+y,1/4-x'
  '-y,-x,z'
  '-y,1/2-x,1/2+z'
  '1/2-y,-x,1/2+z'
  '1/2-y,1/2-x,z'
  '3/4+x,3/4+z,1/4-y'
  '3/4+x,1/4+z,3/4-y'
  '1/4+x,3/4+z,3/4-y'
  '1/4+x,1/4+z,1/4-y'
  '-z,-y,x'
  '-z,1/2-y,1/2+x'
  '1/2-z,-y,1/2+x'
  '1/2-z,1/2-y,x'
  '3/4+y,3/4+x,1/4-z'
  '3/4+y,1/4+x,3/4-z'
  '1/4+y,3/4+x,3/4-z'
  '1/4+y,1/4+x,1/4-z'
  '1/4-z,1/4-x,1/4-y'
  '1/4-z,3/4-x,3/4-y'
  '3/4-z,1/4-x,3/4-y'
  '3/4-z,3/4-x,1/4-y'
  'y,z,x'
  'y,1/2+z,1/2+x'
  '1/2+y,z,1/2+x'
  '1/2+y,1/2+z,x'
  '1/4-x,1/4-y,1/4-z'
  '1/4-x,3/4-y,3/4-z'
  '3/4-x,1/4-y,3/4-z'
  '3/4-x,3/4-y,1/4-z'
  'z,x,y'
  'z,1/2+x,1/2+y'
  '1/2+z,x,1/2+y'
  '1/2+z,1/2+x,y'
  '1/4-y,1/4-z,1/4-x'
  '1/4-y,3/4-z,3/4-x'
  '3/4-y,1/4-z,3/4-x'
  '3/4-y,3/4-z,1/4-x'
loop_
_atom_site_label
_atom_site_fract_x
_atom_site_fract_y
_atom_site_fract_z
Cd   0.00000   0.00000   0.00000
In   0.62500   0.62500   0.62500
S   0.38600   0.38600   0.38600
