data_global
_chemical_name_mineral 'Cancrinite'
loop_
_publ_author_name
'Fechtelkord M'
'Stief F'
'Buhl J-C'
_journal_name_full 'American Mineralogist'
_journal_volume 86 
_journal_year 2001
_journal_page_first 165
_journal_page_last 175
_publ_section_title
;
 Sodium cation dynamics in nitrate cancrinite: A low and high temperature Na and H
 MAS NMR study and high temperature Rietveld structure refinement
 Sample: T = 296 K
;
_database_code_amcsd 0002623
_chemical_formula_sum 'Na3.96 Si3 Al3 O15.78 N.87 H1.17'
_cell_length_a 12.6666
_cell_length_b 12.6666
_cell_length_c 5.1808
_cell_angle_alpha 90
_cell_angle_beta 90
_cell_angle_gamma 120
_cell_volume 719.859
_exptl_crystal_density_diffrn      2.409
_symmetry_space_group_name_H-M 'P 63'
loop_
_space_group_symop_operation_xyz
  'x,y,z'
  'x-y,x,1/2+z'
  '-y,x-y,z'
  '-x,-y,1/2+z'
  '-x+y,-x,z'
  'y,-x+y,1/2+z'
loop_
_atom_site_label
_atom_site_fract_x
_atom_site_fract_y
_atom_site_fract_z
_atom_site_occupancy
_atom_site_U_iso_or_equiv
Na1   0.33333   0.66667   0.62700   0.99000   0.01900
Na2   0.13400   0.27100   0.28600   0.99000   0.02100
Si1   0.08200   0.41000   0.75000   1.00000   0.00500
Al1   0.33700   0.41200   0.74200   1.00000   0.00500
O1   0.20100   0.40300   0.66300   1.00000   0.00600
O2   0.11630   0.55200   0.73000   1.00000   0.00600
O3   0.03800   0.35800   0.04400   1.00000   0.00600
O4   0.32300   0.35300   0.05500   1.00000   0.00600
N1   0.00000   0.00000   0.56000   0.37000   0.01000
N2   0.00000   0.00000   0.75000   0.50000   0.01000
ON1   0.01500   0.90800   0.55000   0.37000   0.03000
ON2   0.88400   0.93900   0.80300   0.50000   0.03000
O-H1   0.62000   0.33000   0.68000   0.39000   0.03000
