data_global
_chemical_name_mineral 'Dickinsonite-(KMnNa)'
loop_
_publ_author_name
'Moore P B'
'Araki T'
'Merlino S'
'Mellini M'
'Zanazzi P F'
_journal_name_full 'American Mineralogist'
_journal_volume 66 
_journal_year 1981
_journal_page_first 1034
_journal_page_last 1049
_publ_section_title
;
 The arrojadite-dickinsonite series, KNa4Ca(Fe,Mn)14Al(OH)2(PO4)12:
 crystal structure and crystal chemistry
 sample BR
;
_database_code_amcsd 0000848
_chemical_compound_source 'Branchville, Connecticut, USA'
_chemical_formula_sum 'Al Fe14 Ca Na4 K P12 O48 F2'
_cell_length_a 24.940
_cell_length_b 10.131
_cell_length_c 16.722
_cell_angle_alpha 90
_cell_angle_beta 105.60
_cell_angle_gamma 90
_cell_volume 4069.458
_exptl_crystal_density_diffrn      3.522
_symmetry_space_group_name_H-M 'A m m 2'
loop_
_space_group_symop_operation_xyz
  'x,y,z'
  'x,1/2+y,1/2+z'
  '1/2+x,-y,z'
  '1/2+x,1/2-y,1/2+z'
  '1/2-x,y,-z'
  '1/2-x,1/2+y,1/2-z'
  '-x,-y,-z'
  '-x,1/2-y,1/2-z'
loop_
_atom_site_label
_atom_site_fract_x
_atom_site_fract_y
_atom_site_fract_z
_atom_site_occupancy
Al   0.00000   0.50000   0.00000   1.00000
Fe1   0.47856   0.88682   0.22519   1.00000
Fe2   0.26879   0.00654   0.21154   1.00000
Fe3   0.13944   0.01293   0.10620   1.00000
Fe4   0.40442   0.24825   0.02195   1.00000
Fe5   0.40102   0.74524   0.03375   1.00000
Fe6   0.35182   0.69839   0.20674   1.00000
Fe7   0.34356   0.29531   0.22190   1.00000
Ca   0.48542   0.22242   0.23362   0.50000
Na1   0.12070   0.51223   0.12679   1.00000
Na2   0.00000   0.00000   0.00000   0.50000
Na3   0.25000   0.16000   0.00000   0.50000
Na4   0.45639   0.93751   0.21059   0.50000
K   0.25000   0.49600   0.00000   1.00000
P1   0.36930   0.00900   0.11680   0.50000
P2   0.33880   0.99870   0.08470   0.50000
P3   0.42283   0.46775   0.12855   1.00000
P4   0.03808   0.24996   0.12487   1.00000
P5   0.04757   0.76632   0.10221   1.00000
P6   0.21185   0.72319   0.12967   1.00000
P7   0.20441   0.29526   0.14445   1.00000
O1   0.36800   0.06240   0.02810   1.00000
O2   0.36430  -0.13690   0.11390   1.00000
O3   0.32350   0.07620   0.14550   0.50000
O4   0.42460   0.04100   0.17990   0.50000
O5   0.27130   0.96910   0.02770   0.50000
O6   0.34730   0.07970   0.15420   0.50000
O7   0.44380   0.44550   0.04960   1.00000
O8   0.39070   0.59740   0.11900   1.00000
O9   0.38540   0.34600   0.12810   1.00000
O10   0.47020   0.46520   0.20860   1.00000
O11   0.07330   0.16490   0.08180   1.00000
O12   0.03700   0.39240   0.09440   1.00000
O13  -0.02080   0.19110   0.10700   1.00000
O14   0.06220   0.24760   0.22060   1.00000
O15   0.04850   0.64310   0.04670   1.00000
O16   0.07890   0.87100   0.06460   1.00000
O17  -0.01140   0.81220   0.09760   1.00000
O18   0.07730   0.73590   0.19290   1.00000
O19   0.17130   0.68160   0.04730   1.00000
O20   0.27050   0.68070   0.13020   1.00000
O21   0.20910   0.87420   0.14030   1.00000
O22   0.19360   0.65630   0.20180   1.00000
O23   0.16650   0.33760   0.06020   1.00000
O24   0.26290   0.35030   0.15450   1.00000
O25   0.20580   0.14380   0.14940   1.00000
O26   0.18130   0.34990   0.21550   1.00000
F   0.13540   0.00090   0.23090   1.00000
