data_global
_chemical_name_mineral 'Dzierzanowskite'
loop_
_publ_author_name
'Purdy A P'
_journal_name_full 'Chemistry of Materials'
_journal_volume 10 
_journal_year 1998
_journal_page_first 692
_journal_page_last 694
_publ_section_title
;
 Ammonothermal crystal growth of sulfide materials
;
_database_code_amcsd 0020310
_chemical_compound_source 'Synthetic'
_chemical_formula_sum 'Ca Cu2 S2'
_cell_length_a 3.9400
_cell_length_b 3.9400
_cell_length_c 6.523
_cell_angle_alpha 90
_cell_angle_beta 90
_cell_angle_gamma 120
_cell_volume 87.694
_exptl_crystal_density_diffrn      4.380
_symmetry_space_group_name_H-M 'P -3 m 1'
loop_
_space_group_symop_operation_xyz
  'x,y,z'
  '-y,-x,z'
  'y,-x+y,-z'
  '-x,-x+y,-z'
  '-x+y,-x,z'
  '-x+y,y,z'
  '-x,-y,-z'
  'y,x,-z'
  '-y,x-y,z'
  'x,x-y,z'
  'x-y,x,-z'
  'x-y,-y,-z'
loop_
_atom_site_label
_atom_site_fract_x
_atom_site_fract_y
_atom_site_fract_z
_atom_site_U_iso_or_equiv
Ca   0.00000   0.00000   0.00000   0.01040
Cu   0.33333   0.66667   0.37649   0.01970
S   0.33333   0.66667   0.74630   0.00920
loop_
_atom_site_aniso_label
_atom_site_aniso_U_11
_atom_site_aniso_U_22
_atom_site_aniso_U_33
_atom_site_aniso_U_12
_atom_site_aniso_U_13
_atom_site_aniso_U_23
Ca 0.01020 0.01020 0.01070 0.00510 0.00000 0.00000
Cu 0.02040 0.02040 0.01840 0.01020 0.00000 0.00000
S 0.00930 0.00930 0.00920 0.00460 0.00000 0.00000
