data_global
_chemical_name_mineral 'Elpasolite'
loop_
_publ_author_name
'Menzer G'
_journal_name_full 'Fortschritte der Mineralogie'
_journal_volume 17 
_journal_year 1932
_journal_page_first 61
_journal_page_last 61
_publ_section_title
;
 Ueber die Kristallstrukturen der Kryolithgruppe
 _cod_database_code 1011068
;
_database_code_amcsd 0017967
_chemical_formula_sum 'Na K2 Al F6'
_cell_length_a 8.09
_cell_length_b 8.09
_cell_length_c 8.09
_cell_angle_alpha 90
_cell_angle_beta 90
_cell_angle_gamma 90
_cell_volume 529.475
_exptl_crystal_density_diffrn      3.038
_symmetry_space_group_name_H-M 'P a -3'
loop_
_space_group_symop_operation_xyz
  'x,y,z'
  '1/2+z,x,1/2-y'
  'z,1/2-x,1/2+y'
  '1/2-z,1/2+x,y'
  '-z,-x,-y'
  '1/2+y,1/2-z,-x'
  '1/2-y,-z,1/2+x'
  '-y,1/2+z,1/2-x'
  'y,z,x'
  'x,1/2-y,1/2+z'
  '1/2-x,1/2+y,z'
  '1/2+x,y,1/2-z'
  '-x,-y,-z'
  '1/2-z,-x,1/2+y'
  '-z,1/2+x,1/2-y'
  '1/2+z,1/2-x,-y'
  'z,x,y'
  '1/2-y,1/2+z,x'
  '1/2+y,z,1/2-x'
  'y,1/2-z,1/2+x'
  '-y,-z,-x'
  '-x,1/2+y,1/2-z'
  '1/2+x,1/2-y,-z'
  '1/2-x,-y,1/2+z'
loop_
_atom_site_label
_atom_site_fract_x
_atom_site_fract_y
_atom_site_fract_z
Na1   0.50000   0.50000   0.50000
K1   0.25000   0.25000   0.25000
Al1   0.00000   0.00000   0.00000
F1   0.22000   0.03000   0.01000
