data_global
_chemical_name_mineral 'Haleniusite-(La)'
loop_
_publ_author_name
'Holtstam D'
'Grins J'
'Nysten P'
_journal_name_full 'The Canadian Mineralogist'
_journal_volume 42 
_journal_year 2004
_journal_page_first 1097
_journal_page_last 1103
_publ_section_title
;
 Haleniusite-(La) from the Bastnas deposit, Vastmanland, Sweden:
 A new REE oxyfluoride mineral species
;
_database_code_amcsd 0005975
_chemical_compound_source 'Bastnas deposit, Vastmanland, Sweden'
_chemical_formula_sum '(La.46 Ce.45 Nd.07 Pr.02) (O1.12 F.88)'
_cell_length_a 5.6282
_cell_length_b 5.6282
_cell_length_c 5.6282
_cell_angle_alpha 90
_cell_angle_beta 90
_cell_angle_gamma 90
_cell_volume 178.282
_exptl_crystal_density_diffrn      6.501
_symmetry_space_group_name_H-M 'F m -3 m'
loop_
_space_group_symop_operation_xyz
  'x,y,z'
  'x,1/2+y,1/2+z'
  '1/2+x,y,1/2+z'
  '1/2+x,1/2+y,z'
  'z,-x,y'
  'z,1/2-x,1/2+y'
  '1/2+z,-x,1/2+y'
  '1/2+z,1/2-x,y'
  '-y,z,-x'
  '-y,1/2+z,1/2-x'
  '1/2-y,z,1/2-x'
  '1/2-y,1/2+z,-x'
  'x,-y,z'
  'x,1/2-y,1/2+z'
  '1/2+x,-y,1/2+z'
  '1/2+x,1/2-y,z'
  '-z,x,-y'
  '-z,1/2+x,1/2-y'
  '1/2-z,x,1/2-y'
  '1/2-z,1/2+x,-y'
  'y,-z,x'
  'y,1/2-z,1/2+x'
  '1/2+y,-z,1/2+x'
  '1/2+y,1/2-z,x'
  '-x,y,-z'
  '-x,1/2+y,1/2-z'
  '1/2-x,y,1/2-z'
  '1/2-x,1/2+y,-z'
  'x,-z,-y'
  'x,1/2-z,1/2-y'
  '1/2+x,-z,1/2-y'
  '1/2+x,1/2-z,-y'
  '-z,y,x'
  '-z,1/2+y,1/2+x'
  '1/2-z,y,1/2+x'
  '1/2-z,1/2+y,x'
  'y,-x,-z'
  'y,1/2-x,1/2-z'
  '1/2+y,-x,1/2-z'
  '1/2+y,1/2-x,-z'
  '-x,z,y'
  '-x,1/2+z,1/2+y'
  '1/2-x,z,1/2+y'
  '1/2-x,1/2+z,y'
  'z,-y,-x'
  'z,1/2-y,1/2-x'
  '1/2+z,-y,1/2-x'
  '1/2+z,1/2-y,-x'
  '-y,x,z'
  '-y,1/2+x,1/2+z'
  '1/2-y,x,1/2+z'
  '1/2-y,1/2+x,z'
  'x,z,y'
  'x,1/2+z,1/2+y'
  '1/2+x,z,1/2+y'
  '1/2+x,1/2+z,y'
  '-z,-y,-x'
  '-z,1/2-y,1/2-x'
  '1/2-z,-y,1/2-x'
  '1/2-z,1/2-y,-x'
  'y,x,z'
  'y,1/2+x,1/2+z'
  '1/2+y,x,1/2+z'
  '1/2+y,1/2+x,z'
  '-x,-z,-y'
  '-x,1/2-z,1/2-y'
  '1/2-x,-z,1/2-y'
  '1/2-x,1/2-z,-y'
  'z,y,x'
  'z,1/2+y,1/2+x'
  '1/2+z,y,1/2+x'
  '1/2+z,1/2+y,x'
  '-y,-x,-z'
  '-y,1/2-x,1/2-z'
  '1/2-y,-x,1/2-z'
  '1/2-y,1/2-x,-z'
  'z,x,-y'
  'z,1/2+x,1/2-y'
  '1/2+z,x,1/2-y'
  '1/2+z,1/2+x,-y'
  '-y,-z,x'
  '-y,1/2-z,1/2+x'
  '1/2-y,-z,1/2+x'
  '1/2-y,1/2-z,x'
  'x,y,-z'
  'x,1/2+y,1/2-z'
  '1/2+x,y,1/2-z'
  '1/2+x,1/2+y,-z'
  '-z,-x,y'
  '-z,1/2-x,1/2+y'
  '1/2-z,-x,1/2+y'
  '1/2-z,1/2-x,y'
  'y,z,-x'
  'y,1/2+z,1/2-x'
  '1/2+y,z,1/2-x'
  '1/2+y,1/2+z,-x'
  '-x,-y,z'
  '-x,1/2-y,1/2+z'
  '1/2-x,-y,1/2+z'
  '1/2-x,1/2-y,z'
  '-z,x,y'
  '-z,1/2+x,1/2+y'
  '1/2-z,x,1/2+y'
  '1/2-z,1/2+x,y'
  'y,-z,-x'
  'y,1/2-z,1/2-x'
  '1/2+y,-z,1/2-x'
  '1/2+y,1/2-z,-x'
  '-x,y,z'
  '-x,1/2+y,1/2+z'
  '1/2-x,y,1/2+z'
  '1/2-x,1/2+y,z'
  'z,-x,-y'
  'z,1/2-x,1/2-y'
  '1/2+z,-x,1/2-y'
  '1/2+z,1/2-x,-y'
  '-y,z,x'
  '-y,1/2+z,1/2+x'
  '1/2-y,z,1/2+x'
  '1/2-y,1/2+z,x'
  'x,-y,-z'
  'x,1/2-y,1/2-z'
  '1/2+x,-y,1/2-z'
  '1/2+x,1/2-y,-z'
  '-x,z,-y'
  '-x,1/2+z,1/2-y'
  '1/2-x,z,1/2-y'
  '1/2-x,1/2+z,-y'
  'z,-y,x'
  'z,1/2-y,1/2+x'
  '1/2+z,-y,1/2+x'
  '1/2+z,1/2-y,x'
  '-y,x,-z'
  '-y,1/2+x,1/2-z'
  '1/2-y,x,1/2-z'
  '1/2-y,1/2+x,-z'
  'x,-z,y'
  'x,1/2-z,1/2+y'
  '1/2+x,-z,1/2+y'
  '1/2+x,1/2-z,y'
  '-z,y,-x'
  '-z,1/2+y,1/2-x'
  '1/2-z,y,1/2-x'
  '1/2-z,1/2+y,-x'
  'y,-x,z'
  'y,1/2-x,1/2+z'
  '1/2+y,-x,1/2+z'
  '1/2+y,1/2-x,z'
  '-x,-z,y'
  '-x,1/2-z,1/2+y'
  '1/2-x,-z,1/2+y'
  '1/2-x,1/2-z,y'
  'z,y,-x'
  'z,1/2+y,1/2-x'
  '1/2+z,y,1/2-x'
  '1/2+z,1/2+y,-x'
  '-y,-x,z'
  '-y,1/2-x,1/2+z'
  '1/2-y,-x,1/2+z'
  '1/2-y,1/2-x,z'
  'x,z,-y'
  'x,1/2+z,1/2-y'
  '1/2+x,z,1/2-y'
  '1/2+x,1/2+z,-y'
  '-z,-y,x'
  '-z,1/2-y,1/2+x'
  '1/2-z,-y,1/2+x'
  '1/2-z,1/2-y,x'
  'y,x,-z'
  'y,1/2+x,1/2-z'
  '1/2+y,x,1/2-z'
  '1/2+y,1/2+x,-z'
  '-z,-x,-y'
  '-z,1/2-x,1/2-y'
  '1/2-z,-x,1/2-y'
  '1/2-z,1/2-x,-y'
  'y,z,x'
  'y,1/2+z,1/2+x'
  '1/2+y,z,1/2+x'
  '1/2+y,1/2+z,x'
  '-x,-y,-z'
  '-x,1/2-y,1/2-z'
  '1/2-x,-y,1/2-z'
  '1/2-x,1/2-y,-z'
  'z,x,y'
  'z,1/2+x,1/2+y'
  '1/2+z,x,1/2+y'
  '1/2+z,1/2+x,y'
  '-y,-z,-x'
  '-y,1/2-z,1/2-x'
  '1/2-y,-z,1/2-x'
  '1/2-y,1/2-z,-x'
loop_
_atom_site_label
_atom_site_fract_x
_atom_site_fract_y
_atom_site_fract_z
_atom_site_occupancy
_atom_site_U_iso_or_equiv
La   0.00000   0.00000   0.00000   0.46000   0.05446
Ce   0.00000   0.00000   0.00000   0.45000   0.05446
Nd   0.00000   0.00000   0.00000   0.07000   0.05446
Pr   0.00000   0.00000   0.00000   0.02000   0.05446
O   0.25000   0.25000   0.25000   0.56000   0.08359
F   0.25000   0.25000   0.25000   0.44000   0.08359
