data_global
_chemical_name_mineral 'Hauerite'
loop_
_publ_author_name
'Offner F'
_journal_name_full 'Zeitschrift fur Kristallographie'
_journal_volume 89 
_journal_year 1934
_journal_page_first 182
_journal_page_last 184
_publ_section_title
;
 A redetermination of the parameter for hauerite, MnS2
;
_database_code_amcsd 0010545
_chemical_formula_sum 'Mn S2'
_cell_length_a 6.097
_cell_length_b 6.097
_cell_length_c 6.097
_cell_angle_alpha 90
_cell_angle_beta 90
_cell_angle_gamma 90
_cell_volume 226.646
_exptl_crystal_density_diffrn      3.489
_symmetry_space_group_name_H-M 'P a -3'
loop_
_space_group_symop_operation_xyz
  'x,y,z'
  '1/2+z,x,1/2-y'
  'z,1/2-x,1/2+y'
  '1/2-z,1/2+x,y'
  '-z,-x,-y'
  '1/2+y,1/2-z,-x'
  '1/2-y,-z,1/2+x'
  '-y,1/2+z,1/2-x'
  'y,z,x'
  'x,1/2-y,1/2+z'
  '1/2-x,1/2+y,z'
  '1/2+x,y,1/2-z'
  '-x,-y,-z'
  '1/2-z,-x,1/2+y'
  '-z,1/2+x,1/2-y'
  '1/2+z,1/2-x,-y'
  'z,x,y'
  '1/2-y,1/2+z,x'
  '1/2+y,z,1/2-x'
  'y,1/2-z,1/2+x'
  '-y,-z,-x'
  '-x,1/2+y,1/2-z'
  '1/2+x,1/2-y,-z'
  '1/2-x,-y,1/2+z'
loop_
_atom_site_label
_atom_site_fract_x
_atom_site_fract_y
_atom_site_fract_z
Mn   0.00000   0.00000   0.00000
S   0.40120   0.40120   0.40120
