data_global
_chemical_name_mineral 'Hydrophilite'
loop_
_publ_author_name
'van Bever A'
'Nieuwenkamp W'
_journal_name_full 'Zeitschrift fur Kristallographie'
_journal_volume 90 
_journal_year 1935
_journal_page_first 374
_journal_page_last 376
_publ_section_title
;
 Die Kristallstruktur von Calciumchlorid, Ca Cl2
 _cod_database_code 1011280
;
_database_code_amcsd 0018132
_chemical_formula_sum 'Ca Cl2'
_cell_length_a 6.24
_cell_length_b 6.43
_cell_length_c 4.2
_cell_angle_alpha 90
_cell_angle_beta 90
_cell_angle_gamma 90
_cell_volume 168.517
_exptl_crystal_density_diffrn      2.187
_symmetry_space_group_name_H-M 'P n n m'
loop_
_space_group_symop_operation_xyz
  'x,y,z'
  '1/2+x,1/2-y,1/2+z'
  '1/2-x,1/2+y,1/2-z'
  '1/2-x,1/2+y,1/2+z'
  '1/2+x,1/2-y,1/2-z'
  'x,y,-z'
  '-x,-y,z'
  '-x,-y,-z'
loop_
_atom_site_label
_atom_site_fract_x
_atom_site_fract_y
_atom_site_fract_z
Ca1   0.00000   0.00000   0.00000
Cl1   0.27500   0.32500   0.00000
