data_global
_chemical_name_mineral 'Iowaite'
loop_
_publ_author_name
'Allmann R'
'Donnay J D H'
_journal_name_full 'American Mineralogist'
_journal_volume 54 
_journal_year 1969
_journal_page_first 296
_journal_page_last 299
_publ_section_title
;
 About the structure of iowaite
;
_database_code_amcsd 0000189
_chemical_formula_sum '(Mg.8 Fe.2) O2.6 Cl.2 H2.6'
_cell_length_a 3.119
_cell_length_b 3.119
_cell_length_c 24.52
_cell_angle_alpha 90
_cell_angle_beta 90
_cell_angle_gamma 120
_cell_volume 206.577
_exptl_crystal_density_diffrn      1.976
_symmetry_space_group_name_H-M 'R -3 m'
loop_
_space_group_symop_operation_xyz
  'x,y,z'
  '2/3+x,1/3+y,1/3+z'
  '1/3+x,2/3+y,2/3+z'
  'x,x-y,z'
  '2/3+x,1/3+x-y,1/3+z'
  '1/3+x,2/3+x-y,2/3+z'
  'y,x,-z'
  '2/3+y,1/3+x,1/3-z'
  '1/3+y,2/3+x,2/3-z'
  '-x+y,y,z'
  '2/3-x+y,1/3+y,1/3+z'
  '1/3-x+y,2/3+y,2/3+z'
  '-x,-x+y,-z'
  '2/3-x,1/3-x+y,1/3-z'
  '1/3-x,2/3-x+y,2/3-z'
  '-y,-x,z'
  '2/3-y,1/3-x,1/3+z'
  '1/3-y,2/3-x,2/3+z'
  'x-y,-y,-z'
  '2/3+x-y,1/3-y,1/3-z'
  '1/3+x-y,2/3-y,2/3-z'
  'y,-x+y,-z'
  '2/3+y,1/3-x+y,1/3-z'
  '1/3+y,2/3-x+y,2/3-z'
  '-x+y,-x,z'
  '2/3-x+y,1/3-x,1/3+z'
  '1/3-x+y,2/3-x,2/3+z'
  '-x,-y,-z'
  '2/3-x,1/3-y,1/3-z'
  '1/3-x,2/3-y,2/3-z'
  '-y,x-y,z'
  '2/3-y,1/3+x-y,1/3+z'
  '1/3-y,2/3+x-y,2/3+z'
  'x-y,x,-z'
  '2/3+x-y,1/3+x,1/3-z'
  '1/3+x-y,2/3+x,2/3-z'
loop_
_atom_site_label
_atom_site_fract_x
_atom_site_fract_y
_atom_site_fract_z
_atom_site_occupancy
Mg   0.00000   0.00000   0.00000   0.80000
Fe   0.00000   0.00000   0.00000   0.20000
O-H1   0.00000   0.00000   0.37600   1.00000
O-H2   0.00000   0.00000   0.50000   0.60000
Cl   0.00000   0.00000   0.50000   0.20000
