data_global
_chemical_name_mineral 'Kononovite'
loop_
_publ_author_name
'Reynaud M'
'Barpanda P'
'Rousse G'
'Chotard J N'
'Melot B C'
'Recham N'
'Tarascon J M'
_journal_name_full 'Solid State Sciences'
_journal_volume 14 
_journal_year 2012
_journal_page_first 15
_journal_page_last 20
_publ_section_title
;
 Synthesis and crystal chemistry of the NaMSO4F family (M=Mg,Fe,Co,Cu,Zn)
;
_database_code_amcsd 0021247
_chemical_compound_source 'Synthetic'
_chemical_formula_sum 'Na Mg S O4 F'
_cell_length_a 6.66958
_cell_length_b 8.58747
_cell_length_c 7.05209
_cell_angle_alpha 90
_cell_angle_beta 114.090
_cell_angle_gamma 90
_cell_volume 368.729
_exptl_crystal_density_diffrn      2.925
_symmetry_space_group_name_H-M 'C 2/c'
loop_
_space_group_symop_operation_xyz
  'x,y,z'
  '1/2+x,1/2+y,z'
  'x,-y,1/2+z'
  '1/2+x,1/2-y,1/2+z'
  '-x,y,1/2-z'
  '1/2-x,1/2+y,1/2-z'
  '-x,-y,-z'
  '1/2-x,1/2-y,-z'
loop_
_atom_site_label
_atom_site_fract_x
_atom_site_fract_y
_atom_site_fract_z
_atom_site_U_iso_or_equiv
Na   0.00000   0.33190   0.25000   0.01570
Mg   0.00000   0.00000   0.00000   0.00279
S   0.00000   0.67740   0.25000   0.00773
O1   0.60740   0.27890   0.13770   0.00152
O2   0.32600   0.07350   0.10080   0.00152
F   0.00000   0.08200   0.25000   0.00152
