data_global
_chemical_name_mineral 'Krutovite'
loop_
_publ_author_name
'Munson R A'
_journal_name_full 'Inorganic Chemistry'
_journal_volume 7 
_journal_year 1968
_journal_page_first 389
_journal_page_last 390
_publ_section_title
;
 The synthesis of iridium disulfide and nickel diarsenide having the pyrite structure
;
_database_code_amcsd 0012675
_chemical_compound_source 'Synthetic'
_chemical_formula_sum 'Ni As2'
_cell_length_a 5.77
_cell_length_b 5.77
_cell_length_c 5.77
_cell_angle_alpha 90
_cell_angle_beta 90
_cell_angle_gamma 90
_cell_volume 192.100
_exptl_crystal_density_diffrn      7.210
_symmetry_space_group_name_H-M 'P a -3'
loop_
_space_group_symop_operation_xyz
  'x,y,z'
  '1/2+z,x,1/2-y'
  'z,1/2-x,1/2+y'
  '1/2-z,1/2+x,y'
  '-z,-x,-y'
  '1/2+y,1/2-z,-x'
  '1/2-y,-z,1/2+x'
  '-y,1/2+z,1/2-x'
  'y,z,x'
  'x,1/2-y,1/2+z'
  '1/2-x,1/2+y,z'
  '1/2+x,y,1/2-z'
  '-x,-y,-z'
  '1/2-z,-x,1/2+y'
  '-z,1/2+x,1/2-y'
  '1/2+z,1/2-x,-y'
  'z,x,y'
  '1/2-y,1/2+z,x'
  '1/2+y,z,1/2-x'
  'y,1/2-z,1/2+x'
  '-y,-z,-x'
  '-x,1/2+y,1/2-z'
  '1/2+x,1/2-y,-z'
  '1/2-x,-y,1/2+z'
loop_
_atom_site_label
_atom_site_fract_x
_atom_site_fract_y
_atom_site_fract_z
Ni   0.00000   0.00000   0.00000
As   0.38000   0.38000   0.38000
