data_global
_chemical_name_mineral 'Lafossaite'
loop_
_publ_author_name
'Moeller K'
_journal_name_full 'Naturwissenschaften'
_journal_volume 21 
_journal_year 1933
_journal_page_first 223
_journal_page_last 223
_publ_section_title
;
 Eine fur Praezisionsbestimmungen von Gitterkonstanten nach der Debye-
 Scherrer-Methode besonders geeignete Eichsubstanz
 _cod_database_code 1011364
;
_database_code_amcsd 0018090
_chemical_formula_sum 'Tl Cl'
_cell_length_a 3.83
_cell_length_b 3.83
_cell_length_c 3.83
_cell_angle_alpha 90
_cell_angle_beta 90
_cell_angle_gamma 90
_cell_volume 56.182
_exptl_crystal_density_diffrn      7.089
_symmetry_space_group_name_H-M 'P m -3 m'
loop_
_space_group_symop_operation_xyz
  'x,y,z'
  'z,-x,y'
  '-y,z,-x'
  'x,-y,z'
  '-z,x,-y'
  'y,-z,x'
  '-x,y,-z'
  'x,-z,-y'
  '-z,y,x'
  'y,-x,-z'
  '-x,z,y'
  'z,-y,-x'
  '-y,x,z'
  'x,z,y'
  '-z,-y,-x'
  'y,x,z'
  '-x,-z,-y'
  'z,y,x'
  '-y,-x,-z'
  'z,x,-y'
  '-y,-z,x'
  'x,y,-z'
  '-z,-x,y'
  'y,z,-x'
  '-x,-y,z'
  '-z,x,y'
  'y,-z,-x'
  '-x,y,z'
  'z,-x,-y'
  '-y,z,x'
  'x,-y,-z'
  '-x,z,-y'
  'z,-y,x'
  '-y,x,-z'
  'x,-z,y'
  '-z,y,-x'
  'y,-x,z'
  '-x,-z,y'
  'z,y,-x'
  '-y,-x,z'
  'x,z,-y'
  '-z,-y,x'
  'y,x,-z'
  '-z,-x,-y'
  'y,z,x'
  '-x,-y,-z'
  'z,x,y'
  '-y,-z,-x'
loop_
_atom_site_label
_atom_site_fract_x
_atom_site_fract_y
_atom_site_fract_z
Tl   0.00000   0.00000   0.00000
Cl   0.50000   0.50000   0.50000
