data_global
_chemical_name_mineral 'Magnesioferrite'
loop_
_publ_author_name
'O'Neill H St C'
'Annersten H'
'Virgo D'
_journal_name_full 'American Mineralogist'
_journal_volume 77 
_journal_year 1992
_journal_page_first 725
_journal_page_last 740
_publ_section_title
;
 The temperature dependence of the cation distribution in magnesioferrite
 (MgFe2O4) from powder XRD structural refinements and Mossbauer spectroscopy
 batch 1, anneal T = 400 C using Rietveld method
;
_database_code_amcsd 0001484
_chemical_formula_sum '(Mg Fe2) O4'
_cell_length_a 8.3805
_cell_length_b 8.3805
_cell_length_c 8.3805
_cell_angle_alpha 90
_cell_angle_beta 90
_cell_angle_gamma 90
_cell_volume 588.586
_exptl_crystal_density_diffrn      4.514
_symmetry_space_group_name_H-M 'F d -3 m'
loop_
_space_group_symop_operation_xyz
  'x,y,z'
  'x,1/2+y,1/2+z'
  '1/2+x,y,1/2+z'
  '1/2+x,1/2+y,z'
  '3/4+z,1/2-x,1/4+y'
  '3/4+z,-x,3/4+y'
  '1/4+z,1/2-x,3/4+y'
  '1/4+z,-x,1/4+y'
  '3/4-y,1/2+z,1/4-x'
  '3/4-y,+z,3/4-x'
  '1/4-y,1/2+z,3/4-x'
  '1/4-y,+z,1/4-x'
  '3/4+x,1/2-y,1/4+z'
  '3/4+x,-y,3/4+z'
  '1/4+x,1/2-y,3/4+z'
  '1/4+x,-y,1/4+z'
  '3/4-z,1/2+x,1/4-y'
  '3/4-z,+x,3/4-y'
  '1/4-z,1/2+x,3/4-y'
  '1/4-z,+x,1/4-y'
  '3/4+y,1/2-z,1/4+x'
  '3/4+y,-z,3/4+x'
  '1/4+y,1/2-z,3/4+x'
  '1/4+y,-z,1/4+x'
  '3/4-x,1/2+y,1/4-z'
  '3/4-x,+y,3/4-z'
  '1/4-x,1/2+y,3/4-z'
  '1/4-x,+y,1/4-z'
  '1/2+x,3/4-z,1/4-y'
  '1/2+x,1/4-z,3/4-y'
  '+x,3/4-z,3/4-y'
  '+x,1/4-z,1/4-y'
  '1/2-z,3/4+y,1/4+x'
  '1/2-z,1/4+y,3/4+x'
  '-z,3/4+y,3/4+x'
  '-z,1/4+y,1/4+x'
  '1/2+y,3/4-x,1/4-z'
  '1/2+y,1/4-x,3/4-z'
  '+y,3/4-x,3/4-z'
  '+y,1/4-x,1/4-z'
  '1/2-x,3/4+z,1/4+y'
  '1/2-x,1/4+z,3/4+y'
  '-x,3/4+z,3/4+y'
  '-x,1/4+z,1/4+y'
  '1/2+z,3/4-y,1/4-x'
  '1/2+z,1/4-y,3/4-x'
  '+z,3/4-y,3/4-x'
  '+z,1/4-y,1/4-x'
  '1/2-y,3/4+x,1/4+z'
  '1/2-y,1/4+x,3/4+z'
  '-y,3/4+x,3/4+z'
  '-y,1/4+x,1/4+z'
  'x,1/2+z,1/2+y'
  'x,+z,+y'
  '1/2+x,1/2+z,+y'
  '1/2+x,+z,1/2+y'
  '-z,1/2-y,1/2-x'
  '-z,-y,-x'
  '1/2-z,1/2-y,-x'
  '1/2-z,-y,1/2-x'
  'y,1/2+x,1/2+z'
  'y,+x,+z'
  '1/2+y,1/2+x,+z'
  '1/2+y,+x,1/2+z'
  '-x,1/2-z,1/2-y'
  '-x,-z,-y'
  '1/2-x,1/2-z,-y'
  '1/2-x,-z,1/2-y'
  'z,1/2+y,1/2+x'
  'z,+y,+x'
  '1/2+z,1/2+y,+x'
  '1/2+z,+y,1/2+x'
  '-y,1/2-x,1/2-z'
  '-y,-x,-z'
  '1/2-y,1/2-x,-z'
  '1/2-y,-x,1/2-z'
  '3/4+z,1/4+x,1/2-y'
  '3/4+z,3/4+x,-y'
  '1/4+z,1/4+x,-y'
  '1/4+z,3/4+x,1/2-y'
  '3/4-y,1/4-z,1/2+x'
  '3/4-y,3/4-z,+x'
  '1/4-y,1/4-z,+x'
  '1/4-y,3/4-z,1/2+x'
  '3/4+x,1/4+y,1/2-z'
  '3/4+x,3/4+y,-z'
  '1/4+x,1/4+y,-z'
  '1/4+x,3/4+y,1/2-z'
  '3/4-z,1/4-x,1/2+y'
  '3/4-z,3/4-x,+y'
  '1/4-z,1/4-x,+y'
  '1/4-z,3/4-x,1/2+y'
  '3/4+y,1/4+z,1/2-x'
  '3/4+y,3/4+z,-x'
  '1/4+y,1/4+z,-x'
  '1/4+y,3/4+z,1/2-x'
  '3/4-x,1/4-y,1/2+z'
  '3/4-x,3/4-y,+z'
  '1/4-x,1/4-y,+z'
  '1/4-x,3/4-y,1/2+z'
  '-z,3/4+x,3/4+y'
  '-z,1/4+x,1/4+y'
  '1/2-z,3/4+x,1/4+y'
  '1/2-z,1/4+x,3/4+y'
  'y,3/4-z,3/4-x'
  'y,1/4-z,1/4-x'
  '1/2+y,3/4-z,1/4-x'
  '1/2+y,1/4-z,3/4-x'
  '-x,3/4+y,3/4+z'
  '-x,1/4+y,1/4+z'
  '1/2-x,3/4+y,1/4+z'
  '1/2-x,1/4+y,3/4+z'
  'z,3/4-x,3/4-y'
  'z,1/4-x,1/4-y'
  '1/2+z,3/4-x,1/4-y'
  '1/2+z,1/4-x,3/4-y'
  '-y,3/4+z,3/4+x'
  '-y,1/4+z,1/4+x'
  '1/2-y,3/4+z,1/4+x'
  '1/2-y,1/4+z,3/4+x'
  'x,3/4-y,3/4-z'
  'x,1/4-y,1/4-z'
  '1/2+x,3/4-y,1/4-z'
  '1/2+x,1/4-y,3/4-z'
  '1/4-x,1/2+z,3/4-y'
  '1/4-x,+z,1/4-y'
  '3/4-x,1/2+z,1/4-y'
  '3/4-x,+z,3/4-y'
  '1/4+z,1/2-y,3/4+x'
  '1/4+z,-y,1/4+x'
  '3/4+z,1/2-y,1/4+x'
  '3/4+z,-y,3/4+x'
  '1/4-y,1/2+x,3/4-z'
  '1/4-y,+x,1/4-z'
  '3/4-y,1/2+x,1/4-z'
  '3/4-y,+x,3/4-z'
  '1/4+x,1/2-z,3/4+y'
  '1/4+x,-z,1/4+y'
  '3/4+x,1/2-z,1/4+y'
  '3/4+x,-z,3/4+y'
  '1/4-z,1/2+y,3/4-x'
  '1/4-z,+y,1/4-x'
  '3/4-z,1/2+y,1/4-x'
  '3/4-z,+y,3/4-x'
  '1/4+y,1/2-x,3/4+z'
  '1/4+y,-x,1/4+z'
  '3/4+y,1/2-x,1/4+z'
  '3/4+y,-x,3/4+z'
  '3/4-x,3/4-z,y'
  '3/4-x,1/4-z,1/2+y'
  '1/4-x,3/4-z,1/2+y'
  '1/4-x,1/4-z,y'
  '3/4+z,3/4+y,-x'
  '3/4+z,1/4+y,1/2-x'
  '1/4+z,3/4+y,1/2-x'
  '1/4+z,1/4+y,-x'
  '3/4-y,3/4-x,z'
  '3/4-y,1/4-x,1/2+z'
  '1/4-y,3/4-x,1/2+z'
  '1/4-y,1/4-x,z'
  '3/4+x,3/4+z,-y'
  '3/4+x,1/4+z,1/2-y'
  '1/4+x,3/4+z,1/2-y'
  '1/4+x,1/4+z,-y'
  '3/4-z,3/4-y,x'
  '3/4-z,1/4-y,1/2+x'
  '1/4-z,3/4-y,1/2+x'
  '1/4-z,1/4-y,x'
  '3/4+y,3/4+x,-z'
  '3/4+y,1/4+x,1/2-z'
  '1/4+y,3/4+x,1/2-z'
  '1/4+y,1/4+x,-z'
  '-z,-x,-y'
  '-z,1/2-x,1/2-y'
  '1/2-z,-x,1/2-y'
  '1/2-z,1/2-x,-y'
  'y,z,x'
  'y,1/2+z,1/2+x'
  '1/2+y,z,1/2+x'
  '1/2+y,1/2+z,x'
  '-x,-y,-z'
  '-x,1/2-y,1/2-z'
  '1/2-x,-y,1/2-z'
  '1/2-x,1/2-y,-z'
  'z,x,y'
  'z,1/2+x,1/2+y'
  '1/2+z,x,1/2+y'
  '1/2+z,1/2+x,y'
  '-y,-z,-x'
  '-y,1/2-z,1/2-x'
  '1/2-y,-z,1/2-x'
  '1/2-y,1/2-z,-x'
loop_
_atom_site_label
_atom_site_fract_x
_atom_site_fract_y
_atom_site_fract_z
_atom_site_occupancy
_atom_site_U_iso_or_equiv
MgT   0.12500   0.12500   0.12500   0.10100   0.00310
FeT   0.12500   0.12500   0.12500   0.89900   0.00310
MgO   0.50000   0.50000   0.50000   0.44950   0.00437
FeO   0.50000   0.50000   0.50000   0.55050   0.00437
O   0.25570   0.25570   0.25570   1.00000   0.00602
