data_global
_chemical_name_mineral 'Mgriite'
loop_
_publ_author_name
'Bayliss P'
_journal_name_full 'The Canadian Mineralogist'
_journal_volume 28 
_journal_year 1990
_journal_page_first 751
_journal_page_last 755
_publ_section_title
;
 Revised unit cell dimensions, space group,
 and chemical formula of some metallic minerals
;
_database_code_amcsd 0005251
_chemical_compound_source 'Synthetic'
_chemical_formula_sum '(Se.423 Cu.415 As.139 Fe.023)'
_cell_length_a 5.758
_cell_length_b 5.758
_cell_length_c 5.758
_cell_angle_alpha 90
_cell_angle_beta 90
_cell_angle_gamma 90
_cell_volume 190.904
_exptl_crystal_density_diffrn      4.973
_symmetry_space_group_name_H-M 'F d -3 m'
loop_
_space_group_symop_operation_xyz
  'x,y,z'
  'x,1/2+y,1/2+z'
  '1/2+x,y,1/2+z'
  '1/2+x,1/2+y,z'
  '3/4+z,3/4-x,1/4+y'
  '3/4+z,1/4-x,3/4+y'
  '1/4+z,3/4-x,3/4+y'
  '1/4+z,1/4-x,1/4+y'
  '-y,1/2+z,1/2-x'
  '-y,+z,-x'
  '1/2-y,1/2+z,-x'
  '1/2-y,+z,1/2-x'
  '3/4+x,3/4-y,1/4+z'
  '3/4+x,1/4-y,3/4+z'
  '1/4+x,3/4-y,3/4+z'
  '1/4+x,1/4-y,1/4+z'
  '-z,1/2+x,1/2-y'
  '-z,+x,-y'
  '1/2-z,1/2+x,-y'
  '1/2-z,+x,1/2-y'
  '3/4+y,3/4-z,1/4+x'
  '3/4+y,1/4-z,3/4+x'
  '1/4+y,3/4-z,3/4+x'
  '1/4+y,1/4-z,1/4+x'
  '-x,1/2+y,1/2-z'
  '-x,+y,-z'
  '1/2-x,1/2+y,-z'
  '1/2-x,+y,1/2-z'
  '1/2+x,-z,1/2-y'
  '1/2+x,1/2-z,-y'
  '+x,-z,-y'
  '+x,1/2-z,1/2-y'
  '3/4-z,3/4+y,1/4+x'
  '3/4-z,1/4+y,3/4+x'
  '1/4-z,3/4+y,3/4+x'
  '1/4-z,1/4+y,1/4+x'
  '1/2+y,-x,1/2-z'
  '1/2+y,1/2-x,-z'
  '+y,-x,-z'
  '+y,1/2-x,1/2-z'
  '3/4-x,3/4+z,1/4+y'
  '3/4-x,1/4+z,3/4+y'
  '1/4-x,3/4+z,3/4+y'
  '1/4-x,1/4+z,1/4+y'
  '1/2+z,-y,1/2-x'
  '1/2+z,1/2-y,-x'
  '+z,-y,-x'
  '+z,1/2-y,1/2-x'
  '3/4-y,3/4+x,1/4+z'
  '3/4-y,1/4+x,3/4+z'
  '1/4-y,3/4+x,3/4+z'
  '1/4-y,1/4+x,1/4+z'
  'x,1/2+z,1/2+y'
  'x,+z,+y'
  '1/2+x,1/2+z,+y'
  '1/2+x,+z,1/2+y'
  '1/4-z,3/4-y,3/4-x'
  '1/4-z,1/4-y,1/4-x'
  '3/4-z,3/4-y,1/4-x'
  '3/4-z,1/4-y,3/4-x'
  'y,1/2+x,1/2+z'
  'y,+x,+z'
  '1/2+y,1/2+x,+z'
  '1/2+y,+x,1/2+z'
  '1/4-x,3/4-z,3/4-y'
  '1/4-x,1/4-z,1/4-y'
  '3/4-x,3/4-z,1/4-y'
  '3/4-x,1/4-z,3/4-y'
  'z,1/2+y,1/2+x'
  'z,+y,+x'
  '1/2+z,1/2+y,+x'
  '1/2+z,+y,1/2+x'
  '1/4-y,3/4-x,3/4-z'
  '1/4-y,1/4-x,1/4-z'
  '3/4-y,3/4-x,1/4-z'
  '3/4-y,1/4-x,3/4-z'
  '3/4+z,1/4+x,3/4-y'
  '3/4+z,3/4+x,1/4-y'
  '1/4+z,1/4+x,1/4-y'
  '1/4+z,3/4+x,3/4-y'
  '-y,1/2-z,1/2+x'
  '-y,-z,+x'
  '1/2-y,1/2-z,+x'
  '1/2-y,-z,1/2+x'
  '3/4+x,1/4+y,3/4-z'
  '3/4+x,3/4+y,1/4-z'
  '1/4+x,1/4+y,1/4-z'
  '1/4+x,3/4+y,3/4-z'
  '-z,1/2-x,1/2+y'
  '-z,-x,+y'
  '1/2-z,1/2-x,+y'
  '1/2-z,-x,1/2+y'
  '3/4+y,1/4+z,3/4-x'
  '3/4+y,3/4+z,1/4-x'
  '1/4+y,1/4+z,1/4-x'
  '1/4+y,3/4+z,3/4-x'
  '-x,1/2-y,1/2+z'
  '-x,-y,+z'
  '1/2-x,1/2-y,+z'
  '1/2-x,-y,1/2+z'
  '1/4-z,3/4+x,3/4+y'
  '1/4-z,1/4+x,1/4+y'
  '3/4-z,3/4+x,1/4+y'
  '3/4-z,1/4+x,3/4+y'
  'y,-z,-x'
  'y,1/2-z,1/2-x'
  '1/2+y,-z,1/2-x'
  '1/2+y,1/2-z,-x'
  '1/4-x,3/4+y,3/4+z'
  '1/4-x,1/4+y,1/4+z'
  '3/4-x,3/4+y,1/4+z'
  '3/4-x,1/4+y,3/4+z'
  'z,-x,-y'
  'z,1/2-x,1/2-y'
  '1/2+z,-x,1/2-y'
  '1/2+z,1/2-x,-y'
  '1/4-y,3/4+z,3/4+x'
  '1/4-y,1/4+z,1/4+x'
  '3/4-y,3/4+z,1/4+x'
  '3/4-y,1/4+z,3/4+x'
  'x,-y,-z'
  'x,1/2-y,1/2-z'
  '1/2+x,-y,1/2-z'
  '1/2+x,1/2-y,-z'
  '1/2-x,1/2+z,-y'
  '1/2-x,+z,1/2-y'
  '-x,1/2+z,1/2-y'
  '-x,+z,-y'
  '1/4+z,3/4-y,3/4+x'
  '1/4+z,1/4-y,1/4+x'
  '3/4+z,3/4-y,1/4+x'
  '3/4+z,1/4-y,3/4+x'
  '1/2-y,1/2+x,-z'
  '1/2-y,+x,1/2-z'
  '-y,1/2+x,1/2-z'
  '-y,+x,-z'
  '1/4+x,3/4-z,3/4+y'
  '1/4+x,1/4-z,1/4+y'
  '3/4+x,3/4-z,1/4+y'
  '3/4+x,1/4-z,3/4+y'
  '1/2-z,1/2+y,-x'
  '1/2-z,+y,1/2-x'
  '-z,1/2+y,1/2-x'
  '-z,+y,-x'
  '1/4+y,3/4-x,3/4+z'
  '1/4+y,1/4-x,1/4+z'
  '3/4+y,3/4-x,1/4+z'
  '3/4+y,1/4-x,3/4+z'
  '-x,-z,y'
  '-x,1/2-z,1/2+y'
  '1/2-x,-z,1/2+y'
  '1/2-x,1/2-z,y'
  '3/4+z,3/4+y,1/4-x'
  '3/4+z,1/4+y,3/4-x'
  '1/4+z,3/4+y,3/4-x'
  '1/4+z,1/4+y,1/4-x'
  '-y,-x,z'
  '-y,1/2-x,1/2+z'
  '1/2-y,-x,1/2+z'
  '1/2-y,1/2-x,z'
  '3/4+x,3/4+z,1/4-y'
  '3/4+x,1/4+z,3/4-y'
  '1/4+x,3/4+z,3/4-y'
  '1/4+x,1/4+z,1/4-y'
  '-z,-y,x'
  '-z,1/2-y,1/2+x'
  '1/2-z,-y,1/2+x'
  '1/2-z,1/2-y,x'
  '3/4+y,3/4+x,1/4-z'
  '3/4+y,1/4+x,3/4-z'
  '1/4+y,3/4+x,3/4-z'
  '1/4+y,1/4+x,1/4-z'
  '1/4-z,1/4-x,1/4-y'
  '1/4-z,3/4-x,3/4-y'
  '3/4-z,1/4-x,3/4-y'
  '3/4-z,3/4-x,1/4-y'
  'y,z,x'
  'y,1/2+z,1/2+x'
  '1/2+y,z,1/2+x'
  '1/2+y,1/2+z,x'
  '1/4-x,1/4-y,1/4-z'
  '1/4-x,3/4-y,3/4-z'
  '3/4-x,1/4-y,3/4-z'
  '3/4-x,3/4-y,1/4-z'
  'z,x,y'
  'z,1/2+x,1/2+y'
  '1/2+z,x,1/2+y'
  '1/2+z,1/2+x,y'
  '1/4-y,1/4-z,1/4-x'
  '1/4-y,3/4-z,3/4-x'
  '3/4-y,1/4-z,3/4-x'
  '3/4-y,3/4-z,1/4-x'
loop_
_atom_site_label
_atom_site_fract_x
_atom_site_fract_y
_atom_site_fract_z
_atom_site_occupancy
Se   0.00000   0.00000   0.00000   0.42300
Cu   0.00000   0.00000   0.00000   0.41500
As   0.00000   0.00000   0.00000   0.13900
Fe   0.00000   0.00000   0.00000   0.02300
