data_global
_chemical_name_mineral 'Minnesotaite'
loop_
_publ_author_name
'Jin S'
'Li X'
'Hobbs F'
'Guggenheim S'
'Xu H'
_journal_name_full 'Clays and Clay Minerals'
_journal_volume 69 
_journal_year 2021
_journal_page_first 672
_journal_page_last 687
_publ_section_title
;
 Meifuite, a new ferrous phyllosilicate mineral with modulated
 tetrahedral sheets similar to minnesotaite
;
_database_code_amcsd 0021050
_chemical_compound_source 'Calculated structure'
_chemical_formula_sum 'Fe15 H14 O62 Si20'
_cell_length_a 28.47162
_cell_length_b 9.55530
_cell_length_c 12.40872
_cell_angle_alpha 100.68230
_cell_angle_beta 127.70480
_cell_angle_gamma 89.89900
_cell_volume 2597.413
_exptl_crystal_density_diffrn      3.076
_symmetry_space_group_name_H-M 'P 1'
loop_
_space_group_symop_operation_xyz
  'x,y,z'
loop_
_atom_site_label
_atom_site_fract_x
_atom_site_fract_y
_atom_site_fract_z
_atom_site_U_iso_or_equiv
Fe1   0.44671   0.41374   0.49520   0.01267
Fe2   0.55329   0.58626   0.50480   0.01267
Fe3   0.44626   0.07789   0.49435   0.01267
Fe4   0.55374   0.92211   0.50565   0.01267
Fe5   0.44626   0.74040   0.50424   0.01267
Fe6   0.55374   0.25960   0.49576   0.01267
Fe7   0.35357   0.58495   0.50526   0.01267
Fe8   0.64643   0.41506   0.49474   0.01267
Fe9   0.35370   0.26135   0.51117   0.01267
Fe10   0.64631   0.73865   0.48883   0.01267
Fe11   0.34865   0.91763   0.50183   0.01267
Fe12   0.65135   0.08237   0.49817   0.01267
Fe13   0.24543   0.42402   0.50126   0.01267
Fe14   0.75457   0.57598   0.49874   0.01267
Fe15   0.15382   0.58835   0.50565   0.01267
Fe16   0.84618   0.41165   0.49435   0.01267
Fe17   0.24527   0.76164   0.49493   0.01267
Fe18   0.75473   0.23836   0.50507   0.01267
Fe19   0.24516   0.08617   0.49492   0.01267
Fe20   0.75484   0.91383   0.50508   0.01267
Fe21   0.05024   0.09070   0.49505   0.01267
Fe22   0.94976   0.90930   0.50495   0.01267
Fe23   0.14629   0.92515   0.49850   0.01267
Fe24   0.85371   0.07485   0.50150   0.01267
Fe25   0.04959   0.74727   0.49573   0.01267
Fe26   0.95041   0.25273   0.50427   0.01267
Fe27   0.14798   0.24667   0.50073   0.01267
Fe28   0.85202   0.75333   0.49927   0.01267
Fe29   0.05213   0.41999   0.50453   0.01267
Fe30   0.94787   0.58001   0.49547   0.01267
H1  -0.02954   0.12785   0.69964   0.01267
H2   0.02954   0.87215   0.30037   0.01267
H3   0.76876   0.12881   0.69782   0.01267
H4   0.23123   0.87119   0.30218   0.01267
H5   0.86781   0.62700   0.69171   0.01267
H6   0.13219   0.37300   0.30829   0.01267
H7   0.36783   0.47089   0.69768   0.01267
H8   0.63217   0.52912   0.30232   0.01267
H9   0.57110   0.45953   0.69290   0.01267
H10   0.42890   0.54047   0.30710   0.01267
H11   0.46953   0.96615   0.69720   0.01267
H12   0.53047   0.03385   0.30280   0.01267
H13   0.26601   0.96925   0.69335   0.01267
H14   0.73399   0.03075   0.30665   0.01267
H15   0.06969   0.63586   0.69313   0.01267
H16   0.93031   0.36414   0.30687   0.01267
H17   0.16802   0.46682   0.69847   0.01267
H18   0.83198   0.53318   0.30153   0.01267
H19   0.16697   0.79960   0.69284   0.01267
H20   0.83303   0.20040   0.30716   0.01267
H21   0.16809   0.13207   0.69559   0.01267
H22   0.83191   0.86793   0.30441   0.01267
H23   0.66779   0.30039   0.69159   0.01267
H24   0.33221   0.69961   0.30841   0.01267
H25   0.66835   0.62961   0.69297   0.01267
H26   0.33165   0.37039   0.30703   0.01267
H27   0.67148   0.96052   0.69235   0.01267
H28   0.32852   0.03948   0.30765   0.01267
O1   0.74936   0.77389   0.60820   0.01267
O2   0.25064   0.22611   0.39180   0.01267
O3   0.64119   0.60299   0.59097   0.01267
O4   0.35881   0.39701   0.40903   0.01267
O5   0.75008   0.43457   0.60797   0.01267
O6   0.24992   0.56543   0.39203   0.01267
O7   0.74427   0.09993   0.59631   0.01267
O8   0.25573   0.90007   0.40369   0.01267
O9   0.99940   0.33933   0.17130   0.01267
O10   0.00060   0.66067   0.82870   0.01267
O11   0.04308   0.93684   0.60652   0.01267
O12   0.95692   0.06316   0.39348   0.01267
O13   0.68386   0.49813   0.16863   0.01267
O14   0.31614   0.50187   0.83137   0.01267
O15   0.85303   0.06742   0.13334   0.01267
O16   0.14697   0.93258   0.86666   0.01267
O17   0.90869   0.83740   0.17181   0.01267
O18   0.09132   0.16260   0.82819   0.01267
O19   0.84948   0.59178   0.13370   0.01267
O20   0.15052   0.40822   0.86630   0.01267
O21   0.72004   0.72951   0.13386   0.01267
O22   0.27996   0.27049   0.86614   0.01267
O23   0.23832   0.94736   0.59153   0.01267
O24   0.76168   0.05264   0.40847   0.01267
O25   0.14264   0.44165   0.59667   0.01267
O26   0.85736   0.55835   0.40333   0.01267
O27   0.24604   0.27805   0.61084   0.01267
O28   0.75396   0.72195   0.38916   0.01267
O29   0.34057   0.44521   0.59560   0.01267
O30   0.65943   0.55479   0.40440   0.01267
O31   0.34328   0.77737   0.59992   0.01267
O32   0.65672   0.22263   0.40008   0.01267
O33   0.95292   0.08824   0.17147   0.01267
O34   0.04708   0.91176   0.82853   0.01267
O35   0.94174   0.44183   0.60002   0.01267
O36   0.05826   0.55817   0.39998   0.01267
O37   0.14038   0.77577   0.59098   0.01267
O38   0.85962   0.22423   0.40902   0.01267
O39   0.13996   0.10969   0.59365   0.01267
O40   0.86004   0.89031   0.40635   0.01267
O41   0.95084   0.58517   0.17103   0.01267
O42   0.04916   0.41484   0.82897   0.01267
O43   0.04647   0.28164   0.61007   0.01267
O44   0.95353   0.71836   0.38993   0.01267
O45   0.04134   0.60722   0.59137   0.01267
O46   0.95866   0.39278   0.40863   0.01267
O47   0.84160   0.60346   0.58972   0.01267
O48   0.15840   0.39654   0.41028   0.01267
O49   0.94402   0.10142   0.59765   0.01267
O50   0.05598   0.89858   0.40235   0.01267
O51   0.94239   0.76963   0.60055   0.01267
O52   0.05761   0.23037   0.39945   0.01267
O53   0.84582   0.93685   0.60151   0.01267
O54   0.15418   0.06315   0.39849   0.01267
O55   0.84501   0.26779   0.59986   0.01267
O56   0.15499   0.73221   0.40014   0.01267
O57   0.64189   0.93824   0.59076   0.01267
O58   0.35811   0.06176   0.40924   0.01267
O59   0.64170   0.27336   0.58989   0.01267
O60   0.35830   0.72664   0.41011   0.01267
O61   0.24629   0.62032   0.61022   0.01267
O62   0.75371   0.37968   0.38978   0.01267
O63   0.44265   0.60249   0.60413   0.01267
O64   0.55735   0.39751   0.39587   0.01267
O65   0.34300   0.11114   0.60025   0.01267
O66   0.65700   0.88886   0.39975   0.01267
O67   0.44271   0.27643   0.60144   0.01267
O68   0.55730   0.72356   0.39856   0.01267
O69   0.54692   0.77680   0.61126   0.01267
O70   0.45308   0.22321   0.38874   0.01267
O71   0.44086   0.93711   0.59539   0.01267
O72   0.55914   0.06289   0.40461   0.01267
O73   0.54293   0.43955   0.59110   0.01267
O74   0.45707   0.56045   0.40890   0.01267
O75   0.59384   0.00077   0.17120   0.01267
O76   0.40616  -0.00077   0.82880   0.01267
O77   0.63883   0.25258   0.17094   0.01267
O78   0.36117   0.74743   0.82906   0.01267
O79   0.49859   0.50187   0.16809   0.01267
O80   0.50141   0.49814   0.83191   0.01267
O81   0.63842   0.74626   0.16986   0.01267
O82   0.36158   0.25374   0.83014   0.01267
O83   0.72062   0.24649   0.13486   0.01267
O84   0.27937   0.75351   0.86514   0.01267
O85   0.54466   0.11393   0.60542   0.01267
O86   0.45534   0.88608   0.39458   0.01267
O87   0.45180   0.75069   0.17230   0.01267
O88   0.54820   0.24931   0.82770   0.01267
O89   0.21820   0.57135   0.13463   0.01267
O90   0.78180   0.42865   0.86537   0.01267
O91   0.18314   0.33906   0.16818   0.01267
O92   0.81686   0.66094   0.83182   0.01267
O93   0.04569   0.08946   0.17129   0.01267
O94   0.95431   0.91054   0.82871   0.01267
O95   0.13872   0.08975   0.16926   0.01267
O96   0.86128   0.91025   0.83074   0.01267
O97   0.13662   0.58601   0.16973   0.01267
O98   0.86338   0.41399   0.83027   0.01267
O99   0.22219   0.09289   0.13737   0.01267
O100   0.77781   0.90711   0.86263   0.01267
O101   0.40791   0.99884   0.16966   0.01267
O102   0.59209   0.00116   0.83034   0.01267
O103   0.45206   0.25164   0.17120   0.01267
O104   0.54794   0.74836   0.82880   0.01267
O105   0.35214   0.74975   0.13850   0.01267
O106   0.64786   0.25025   0.86150   0.01267
O107   0.35117   0.22719   0.13173   0.01267
O108   0.64883   0.77281   0.86826   0.01267
O109   0.54590   0.75444   0.17274   0.01267
O110   0.45410   0.24556   0.82726   0.01267
O111   0.54583   0.24890   0.17270   0.01267
O112   0.45417   0.75110   0.82730   0.01267
O113   0.04469   0.59414   0.17341   0.01267
O114   0.95531   0.40586   0.82659   0.01267
O115   0.09337   0.84039   0.17168   0.01267
O116   0.90663   0.15961   0.82832   0.01267
O117   0.26063   0.88995   0.04704   0.01267
O118   0.73937   0.11005   0.95296   0.01267
O119   0.26804   0.38765   0.06229   0.01267
O120   0.73196   0.61235   0.93771   0.01267
O121   0.23460   0.11394   0.93885   0.01267
O122   0.76540   0.88607   0.06115   0.01267
O123   0.23634   0.61107   0.95401   0.01267
O124   0.76366   0.38893   0.04599   0.01267
Si1   0.98660   0.48263   0.77157   0.01267
Si2   0.01340   0.51737   0.22843   0.01267
Si3   0.80033   0.81246   0.77939   0.01267
Si4   0.19967   0.18754   0.22061   0.01267
Si5   0.58145   0.15139   0.77559   0.01267
Si6   0.41855   0.84861   0.22441   0.01267
Si7   0.58213   0.82458   0.78018   0.01267
Si8   0.41787   0.17542   0.21982   0.01267
Si9   0.80189   0.48394   0.77785   0.01267
Si10   0.19812   0.51606   0.22215   0.01267
Si11   0.89254   0.98181   0.77373   0.01267
Si12   0.10746   0.01819   0.22627   0.01267
Si13   0.89320   0.31086   0.77209   0.01267
Si14   0.10679   0.68914   0.22791   0.01267
Si15   0.30063   0.32498   0.78110   0.01267
Si16   0.69937   0.67502   0.21890   0.01267
Si17   0.08324   0.31593   0.78012   0.01267
Si18   0.91676   0.68407   0.21988   0.01267
Si19   0.30037   0.65425   0.78088   0.01267
Si20   0.69964   0.34575   0.21912   0.01267
Si21   0.98609   0.81139   0.77282   0.01267
Si22   0.01391   0.18861   0.22718   0.01267
Si23   0.39186   0.82118   0.77174   0.01267
Si24   0.60814   0.17882   0.22826   0.01267
Si25   0.39167   0.15024   0.77174   0.01267
Si26   0.60833   0.84976   0.22826   0.01267
Si27   0.28546   0.25002  -0.00004   0.01267
Si28   0.71454   0.74998   0.00004   0.01267
Si29   0.28328   0.75089   0.00161   0.01267
Si30   0.71672   0.24911  -0.00161   0.01267
Si31   0.21632   0.49315   0.00346   0.01267
Si32   0.78368   0.50685  -0.00346   0.01267
Si33   0.08005   0.98571   0.77636   0.01267
Si34   0.91995   0.01429   0.22364   0.01267
Si35   0.21486   0.00924  -0.00049   0.01267
Si36   0.78514  -0.00924   0.00049   0.01267
Si37   0.48666   0.31973   0.77380   0.01267
Si38   0.51334   0.68027   0.22620   0.01267
Si39   0.48721   0.64966   0.77629   0.01267
Si40   0.51279   0.35034   0.22371   0.01267
