data_global
_chemical_name_mineral 'Natanite'
loop_
_publ_author_name
'Strunz V H'
'Contag B'
_journal_name_full 'Acta Crystallographica'
_journal_volume 13 
_journal_year 1960
_journal_page_first 601
_journal_page_last 603
_publ_section_title
;
 Hexahydroxostannate Fe, Mn, Co, Mg, Ca[Sn(OH)6] und deren kristallstruktur
;
_database_code_amcsd 0009240
_chemical_compound_source 'Synthetic'
_chemical_formula_sum 'Fe Sn (O6 H6)'
_cell_length_a 7.79
_cell_length_b 7.79
_cell_length_c 7.79
_cell_angle_alpha 90
_cell_angle_beta 90
_cell_angle_gamma 90
_cell_volume 472.729
_exptl_crystal_density_diffrn      3.886
_symmetry_space_group_name_H-M 'P n -3 m'
loop_
_space_group_symop_operation_xyz
  'x,y,z'
  '1/2+z,-x,1/2+y'
  '1/2-y,z,1/2-x'
  '1/2+x,-y,1/2+z'
  '1/2-z,x,1/2-y'
  '1/2+y,-z,1/2+x'
  '1/2-x,y,1/2-z'
  'x,1/2-z,1/2-y'
  '-z,1/2+y,1/2+x'
  'y,1/2-x,1/2-z'
  '-x,1/2+z,1/2+y'
  'z,1/2-y,1/2-x'
  '-y,1/2+x,1/2+z'
  'x,z,y'
  '-z,-y,-x'
  'y,x,z'
  '-x,-z,-y'
  'z,y,x'
  '-y,-x,-z'
  '1/2+z,1/2+x,-y'
  '1/2-y,1/2-z,x'
  '1/2+x,1/2+y,-z'
  '1/2-z,1/2-x,y'
  '1/2+y,1/2+z,-x'
  '1/2-x,1/2-y,z'
  '-z,1/2+x,1/2+y'
  'y,1/2-z,1/2-x'
  '-x,1/2+y,1/2+z'
  'z,1/2-x,1/2-y'
  '-y,1/2+z,1/2+x'
  'x,1/2-y,1/2-z'
  '1/2-x,z,1/2-y'
  '1/2+z,-y,1/2+x'
  '1/2-y,x,1/2-z'
  '1/2+x,-z,1/2+y'
  '1/2-z,y,1/2-x'
  '1/2+y,-x,1/2+z'
  '1/2-x,1/2-z,y'
  '1/2+z,1/2+y,-x'
  '1/2-y,1/2-x,z'
  '1/2+x,1/2+z,-y'
  '1/2-z,1/2-y,x'
  '1/2+y,1/2+x,-z'
  '-z,-x,-y'
  'y,z,x'
  '-x,-y,-z'
  'z,x,y'
  '-y,-z,-x'
loop_
_atom_site_label
_atom_site_fract_x
_atom_site_fract_y
_atom_site_fract_z
Fe   0.50000   0.50000   0.50000
Sn   0.00000   0.00000   0.00000
O-H   0.05620   0.05620   0.24800
