data_global
_chemical_name_mineral 'Negevite'
loop_
_publ_author_name
'Donohue P C'
'Bither T A'
'Young H S'
_journal_name_full 'Inorganic Chemistry'
_journal_volume 7 
_journal_year 1968
_journal_page_first 998
_journal_page_last 1001
_publ_section_title
;
 High-pressure synthesis of pyrite-type nickel diphosphide and nickel diarsenide
;
_database_code_amcsd 0012676
_chemical_compound_source 'Synthetic'
_chemical_formula_sum 'Ni P2'
_cell_length_a 5.4706
_cell_length_b 5.4706
_cell_length_c 5.4706
_cell_angle_alpha 90
_cell_angle_beta 90
_cell_angle_gamma 90
_cell_volume 163.721
_exptl_crystal_density_diffrn      4.894
_symmetry_space_group_name_H-M 'P a -3'
loop_
_space_group_symop_operation_xyz
  'x,y,z'
  '1/2+z,x,1/2-y'
  'z,1/2-x,1/2+y'
  '1/2-z,1/2+x,y'
  '-z,-x,-y'
  '1/2+y,1/2-z,-x'
  '1/2-y,-z,1/2+x'
  '-y,1/2+z,1/2-x'
  'y,z,x'
  'x,1/2-y,1/2+z'
  '1/2-x,1/2+y,z'
  '1/2+x,y,1/2-z'
  '-x,-y,-z'
  '1/2-z,-x,1/2+y'
  '-z,1/2+x,1/2-y'
  '1/2+z,1/2-x,-y'
  'z,x,y'
  '1/2-y,1/2+z,x'
  '1/2+y,z,1/2-x'
  'y,1/2-z,1/2+x'
  '-y,-z,-x'
  '-x,1/2+y,1/2-z'
  '1/2+x,1/2-y,-z'
  '1/2-x,-y,1/2+z'
loop_
_atom_site_label
_atom_site_fract_x
_atom_site_fract_y
_atom_site_fract_z
_atom_site_U_iso_or_equiv
Ni   0.00000   0.00000   0.00000   0.00380
P   0.38810   0.38810   0.38810   0.00380
