data_global
_chemical_name_mineral 'Olgite'
loop_
_publ_author_name
'Sokolova E'
'Hawthorne F C'
'Khomyakov A P'
_journal_name_full 'The Canadian Mineralogist'
_journal_volume 43 
_journal_year 2005
_journal_page_first 1521
_journal_page_last 1526
_publ_section_title
;
 Refinement of the crystal structure and revision of the
 chemical formula of olgite: (Ba,Sr) (Na,Sr,REE)2 Na [PO4]2
 Sample: I
;
_database_code_amcsd 0006063
_chemical_compound_source 'Lovozero alkaline massif, Kola Peninsula, Russia'
_chemical_formula_sum 'Ba.76 Sr.88 K.04 Na2.12 La.1 Ca.04 Ce.02 Mn.03 P2 O8'
_cell_length_a 5.5606
_cell_length_b 5.5606
_cell_length_c 7.0450
_cell_angle_alpha 90
_cell_angle_beta 90
_cell_angle_gamma 120
_cell_volume 188.649
_exptl_crystal_density_diffrn      3.888
_symmetry_space_group_name_H-M 'P -3 m 1'
loop_
_space_group_symop_operation_xyz
  'x,y,z'
  '-y,-x,z'
  'y,-x+y,-z'
  '-x,-x+y,-z'
  '-x+y,-x,z'
  '-x+y,y,z'
  '-x,-y,-z'
  'y,x,-z'
  '-y,x-y,z'
  'x,x-y,z'
  'x-y,x,-z'
  'x-y,-y,-z'
loop_
_atom_site_label
_atom_site_fract_x
_atom_site_fract_y
_atom_site_fract_z
_atom_site_occupancy
_atom_site_U_iso_or_equiv
BaM1   0.00000   0.00000   0.50000   0.76000   0.03620
SrM1   0.00000   0.00000   0.50000   0.20000   0.03620
KM1   0.00000   0.00000   0.50000   0.04000   0.03620
NaM2   0.33333   0.66667   0.16340   0.57500   0.02100
SrM2   0.33333   0.66667   0.16340   0.34000   0.02100
LaM2   0.33333   0.66667   0.16340   0.05000   0.02100
CaM2   0.33333   0.66667   0.16340   0.02000   0.02100
CeM2   0.33333   0.66667   0.16340   0.01000   0.02100
NaM3   0.00000   0.00000   0.00000   0.97000   0.01450
MnM3   0.00000   0.00000   0.00000   0.03000   0.01450
P   0.66667   0.33333   0.28180   1.00000   0.01310
O1   0.37030   0.18515   0.20390   1.00000   0.03920
O2   0.66667   0.33333   0.49690   1.00000   0.03450
loop_
_atom_site_aniso_label
_atom_site_aniso_U_11
_atom_site_aniso_U_22
_atom_site_aniso_U_33
_atom_site_aniso_U_12
_atom_site_aniso_U_13
_atom_site_aniso_U_23
BaM1 0.04720 0.04720 0.01400 0.02360 0.00000 0.00000
SrM1 0.04720 0.04720 0.01400 0.02360 0.00000 0.00000
KM1 0.04720 0.04720 0.01400 0.02360 0.00000 0.00000
NaM2 0.02280 0.02280 0.01740 0.01140 0.00000 0.00000
SrM2 0.02280 0.02280 0.01740 0.01140 0.00000 0.00000
LaM2 0.02280 0.02280 0.01740 0.01140 0.00000 0.00000
CaM2 0.02280 0.02280 0.01740 0.01140 0.00000 0.00000
CeM2 0.02280 0.02280 0.01740 0.01140 0.00000 0.00000
NaM3 0.01550 0.01550 0.01250 0.00780 0.00000 0.00000
MnM3 0.01550 0.01550 0.01250 0.00780 0.00000 0.00000
P 0.01350 0.01350 0.01230 0.00680 0.00000 0.00000
O1 0.02350 0.04530 0.04150 0.01170 -0.01710 -0.00850
O2 0.04400 0.04400 0.01500 0.02220 0.00000 0.00000
