data_global
_chemical_name_mineral 'Oskarssonite'
loop_
_publ_author_name
'Daniel P'
'Bulou A'
'Rousseau M'
'Nouet J'
'Fourquet J'
'Leblanc M'
'Burriel R'
_journal_name_full 'Journal of Physics: Condensed Matter'
_journal_volume 2 
_journal_year 1990
_journal_page_first 5663
_journal_page_last 5677
_publ_section_title
;
 A study of the structural phase transitions in AlF3: X-ray powder
 diffraction, DSC and Raman scattering investigations of the lattice
 dynamics and phonon spectrum
 _cod_database_code 1000467
;
_database_code_amcsd 0013259
_chemical_formula_sum 'Al F3'
_cell_length_a 4.9305
_cell_length_b 4.9305
_cell_length_c 12.4462
_cell_angle_alpha 90
_cell_angle_beta 90
_cell_angle_gamma 120
_cell_volume 262.029
_exptl_crystal_density_diffrn      3.193
_symmetry_space_group_name_H-M 'R -3 c'
loop_
_space_group_symop_operation_xyz
  'x,y,z'
  '2/3+x,1/3+y,1/3+z'
  '1/3+x,2/3+y,2/3+z'
  'x,x-y,1/2+z'
  '2/3+x,1/3+x-y,5/6+z'
  '1/3+x,2/3+x-y,1/6+z'
  'y,x,1/2-z'
  '2/3+y,1/3+x,5/6-z'
  '1/3+y,2/3+x,1/6-z'
  '-x+y,y,1/2+z'
  '2/3-x+y,1/3+y,5/6+z'
  '1/3-x+y,2/3+y,1/6+z'
  '-x,-x+y,1/2-z'
  '2/3-x,1/3-x+y,5/6-z'
  '1/3-x,2/3-x+y,1/6-z'
  '-y,-x,1/2+z'
  '2/3-y,1/3-x,5/6+z'
  '1/3-y,2/3-x,1/6+z'
  'x-y,-y,1/2-z'
  '2/3+x-y,1/3-y,5/6-z'
  '1/3+x-y,2/3-y,1/6-z'
  'y,-x+y,-z'
  '2/3+y,1/3-x+y,1/3-z'
  '1/3+y,2/3-x+y,2/3-z'
  '-x+y,-x,z'
  '2/3-x+y,1/3-x,1/3+z'
  '1/3-x+y,2/3-x,2/3+z'
  '-x,-y,-z'
  '2/3-x,1/3-y,1/3-z'
  '1/3-x,2/3-y,2/3-z'
  '-y,x-y,z'
  '2/3-y,1/3+x-y,1/3+z'
  '1/3-y,2/3+x-y,2/3+z'
  'x-y,x,-z'
  '2/3+x-y,1/3+x,1/3-z'
  '1/3+x-y,2/3+x,2/3-z'
loop_
_atom_site_label
_atom_site_fract_x
_atom_site_fract_y
_atom_site_fract_z
Al   0.00000   0.00000   0.00000
F   0.42750   0.00000   0.25000
