data_global
_chemical_name_mineral 'Paragersdorffite'
loop_
_publ_author_name
'Bayliss P'
_journal_name_full 'American Mineralogist'
_journal_volume 53 
_journal_year 1968
_journal_page_first 290
_journal_page_last 293
_publ_section_title
;
 The crystal structure of disordered gersdorffite
;
_database_code_amcsd 0000168
_chemical_compound_source 'Ferro, Dobsina, Slovakia, Czechoslovakia'
_chemical_formula_sum 'Ni (As1.23 S.77)'
_cell_length_a 5.7053
_cell_length_b 5.7053
_cell_length_c 5.7053
_cell_angle_alpha 90
_cell_angle_beta 90
_cell_angle_gamma 90
_cell_volume 185.710
_exptl_crystal_density_diffrn      6.278
_symmetry_space_group_name_H-M 'P a -3'
loop_
_space_group_symop_operation_xyz
  'x,y,z'
  '1/2+z,x,1/2-y'
  'z,1/2-x,1/2+y'
  '1/2-z,1/2+x,y'
  '-z,-x,-y'
  '1/2+y,1/2-z,-x'
  '1/2-y,-z,1/2+x'
  '-y,1/2+z,1/2-x'
  'y,z,x'
  'x,1/2-y,1/2+z'
  '1/2-x,1/2+y,z'
  '1/2+x,y,1/2-z'
  '-x,-y,-z'
  '1/2-z,-x,1/2+y'
  '-z,1/2+x,1/2-y'
  '1/2+z,1/2-x,-y'
  'z,x,y'
  '1/2-y,1/2+z,x'
  '1/2+y,z,1/2-x'
  'y,1/2-z,1/2+x'
  '-y,-z,-x'
  '-x,1/2+y,1/2-z'
  '1/2+x,1/2-y,-z'
  '1/2-x,-y,1/2+z'
loop_
_atom_site_label
_atom_site_fract_x
_atom_site_fract_y
_atom_site_fract_z
_atom_site_occupancy
_atom_site_U_iso_or_equiv
Ni   0.00000   0.00000   0.00000   1.00000   0.01520
As   0.37850   0.37850   0.37850   0.61500   0.01140
S   0.37850   0.37850   0.37850   0.38500   0.01140
