data_global
_chemical_name_mineral 'Phlogopite'
loop_
_publ_author_name
'Hendricks S B'
'Jefferson M E'
_journal_name_full 'American Mineralogist'
_journal_volume 24 
_journal_year 1939
_journal_page_first 729
_journal_page_last 771
_publ_section_title
;
 Polymorphism of the micas with optical measurements
 Note: Biotite group
;
_database_code_amcsd 0000024
_chemical_formula_sum 'K Mg3 (Si3 Al) O11 (F H)'
_cell_length_a 5.32
_cell_length_b 9.21
_cell_length_c 10.16
_cell_angle_alpha 90
_cell_angle_beta 100.03
_cell_angle_gamma 90
_cell_volume 490.203
_exptl_crystal_density_diffrn      2.840
_symmetry_space_group_name_H-M 'C m'
loop_
_space_group_symop_operation_xyz
  'x,y,z'
  '1/2+x,1/2+y,z'
  'x,-y,z'
  '1/2+x,1/2-y,z'
loop_
_atom_site_label
_atom_site_fract_x
_atom_site_fract_y
_atom_site_fract_z
_atom_site_occupancy
K   0.45000   0.50000   0.84000   1.00000
Mg1   0.44000   0.33000   0.34000   1.00000
Mg2   0.44000   0.00000   0.34000   1.00000
Si1   0.02000   0.33000   0.06000   0.75000
Si2   0.37000   0.17000   0.62000   0.75000
Al1   0.02000   0.33000   0.06000   0.25000
Al2   0.37000   0.17000   0.62000   0.25000
O1   0.25000   0.25000   0.00000   1.00000
O2   0.08000   0.33000   0.22000   1.00000
O3   0.32000   0.17000   0.46000   1.00000
O4   0.14000   0.25000   0.68000   1.00000
O5   0.00000   0.50000   0.00000   1.00000
O6   0.39000   0.00000   0.68000   1.00000
O-H1   0.08000   0.00000   0.22000   0.50000
O-H2   0.32000   0.50000   0.46000   0.50000
F1   0.08000   0.00000   0.22000   0.50000
F2   0.32000   0.50000   0.46000   0.50000
