data_global
_chemical_name_mineral 'Plazolite'
loop_
_publ_author_name
'Pabst A'
_journal_name_full 'American Mineralogist'
_journal_volume 22 
_journal_year 1937
_journal_page_first 861
_journal_page_last 868
_publ_section_title
;
 The crystal structure of plazolite
;
_database_code_amcsd 0000017
_chemical_formula_sum 'Al2 Ca3 Si2.001 O12'
_cell_length_a 12.140
_cell_length_b 12.140
_cell_length_c 12.140
_cell_angle_alpha 90
_cell_angle_beta 90
_cell_angle_gamma 90
_cell_volume 1789.188
_exptl_crystal_density_diffrn      3.136
_symmetry_space_group_name_H-M 'I a -3 d'
loop_
_space_group_symop_operation_xyz
  'x,y,z'
  '1/2+x,1/2+y,1/2+z'
  'z,1/2-x,1/2+y'
  '1/2+z,-x,+y'
  '-y,1/2+z,1/2-x'
  '1/2-y,+z,-x'
  'x,1/2-y,1/2+z'
  '1/2+x,-y,+z'
  '-z,1/2+x,1/2-y'
  '1/2-z,+x,-y'
  'y,1/2-z,1/2+x'
  '1/2+y,-z,+x'
  '-x,1/2+y,1/2-z'
  '1/2-x,+y,-z'
  '3/4+x,1/4-z,3/4-y'
  '1/4+x,3/4-z,1/4-y'
  '3/4-z,1/4+y,3/4+x'
  '1/4-z,3/4+y,1/4+x'
  '3/4+y,1/4-x,3/4-z'
  '1/4+y,3/4-x,1/4-z'
  '3/4-x,1/4+z,3/4+y'
  '1/4-x,3/4+z,1/4+y'
  '3/4+z,1/4-y,3/4-x'
  '1/4+z,3/4-y,1/4-x'
  '3/4-y,1/4+x,3/4+z'
  '1/4-y,3/4+x,1/4+z'
  '1/4+x,1/4+z,1/4+y'
  '3/4+x,3/4+z,3/4+y'
  '1/4-z,1/4-y,1/4-x'
  '3/4-z,3/4-y,3/4-x'
  '1/4+y,1/4+x,1/4+z'
  '3/4+y,3/4+x,3/4+z'
  '1/4-x,1/4-z,1/4-y'
  '3/4-x,3/4-z,3/4-y'
  '1/4+z,1/4+y,1/4+x'
  '3/4+z,3/4+y,3/4+x'
  '1/4-y,1/4-x,1/4-z'
  '3/4-y,3/4-x,3/4-z'
  '1/2+z,x,1/2-y'
  '+z,1/2+x,-y'
  '1/2-y,-z,1/2+x'
  '-y,1/2-z,+x'
  '1/2+x,y,1/2-z'
  '+x,1/2+y,-z'
  '1/2-z,-x,1/2+y'
  '-z,1/2-x,+y'
  '1/2+y,z,1/2-x'
  '+y,1/2+z,-x'
  '1/2-x,-y,1/2+z'
  '-x,1/2-y,+z'
  '1/2-z,1/2+x,y'
  '-z,+x,1/2+y'
  '1/2+y,1/2-z,-x'
  '+y,-z,1/2-x'
  '1/2-x,1/2+y,z'
  '-x,+y,1/2+z'
  '1/2+z,1/2-x,-y'
  '+z,-x,1/2-y'
  '1/2-y,1/2+z,x'
  '-y,+z,1/2+x'
  '1/2+x,1/2-y,-z'
  '+x,-y,1/2-z'
  '3/4-x,3/4+z,1/4-y'
  '1/4-x,1/4+z,3/4-y'
  '3/4+z,3/4-y,1/4+x'
  '1/4+z,1/4-y,3/4+x'
  '3/4-y,3/4+x,1/4-z'
  '1/4-y,1/4+x,3/4-z'
  '3/4+x,3/4-z,1/4+y'
  '1/4+x,1/4-z,3/4+y'
  '3/4-z,3/4+y,1/4-x'
  '1/4-z,1/4+y,3/4-x'
  '3/4+y,3/4-x,1/4+z'
  '1/4+y,1/4-x,3/4+z'
  '1/4-x,3/4-z,3/4+y'
  '3/4-x,1/4-z,1/4+y'
  '1/4+z,3/4+y,3/4-x'
  '3/4+z,1/4+y,1/4-x'
  '1/4-y,3/4-x,3/4+z'
  '3/4-y,1/4-x,1/4+z'
  '1/4+x,3/4+z,3/4-y'
  '3/4+x,1/4+z,1/4-y'
  '1/4-z,3/4-y,3/4+x'
  '3/4-z,1/4-y,1/4+x'
  '1/4+y,3/4+x,3/4-z'
  '3/4+y,1/4+x,1/4-z'
  '-z,-x,-y'
  '1/2-z,1/2-x,1/2-y'
  'y,z,x'
  '1/2+y,1/2+z,1/2+x'
  '-x,-y,-z'
  '1/2-x,1/2-y,1/2-z'
  'z,x,y'
  '1/2+z,1/2+x,1/2+y'
  '-y,-z,-x'
  '1/2-y,1/2-z,1/2-x'
loop_
_atom_site_label
_atom_site_fract_x
_atom_site_fract_y
_atom_site_fract_z
_atom_site_occupancy
Al   0.00000   0.00000   0.00000   1.00000
Ca   0.25000   0.12500   0.00000   1.00000
Si   0.25000   0.37500   0.00000   0.66700
O   0.03500   0.04000   0.65000   1.00000
