data_global
_chemical_name_mineral 'Pollucite'
loop_
_publ_author_name
'Newnham R E'
_journal_name_full 'American Mineralogist'
_journal_volume 52 
_journal_year 1967
_journal_page_first 1515
_journal_page_last 1518
_publ_section_title
;
 Crystal structure and optical properties of pollucite
;
_database_code_amcsd 0000159
_chemical_formula_sum '(Cs.7 Na.3) (Al.99 Si2.01) O6'
_cell_length_a 13.682
_cell_length_b 13.682
_cell_length_c 13.682
_cell_angle_alpha 90
_cell_angle_beta 90
_cell_angle_gamma 90
_cell_volume 2561.231
_exptl_crystal_density_diffrn      2.895
_symmetry_space_group_name_H-M 'I a -3 d'
loop_
_space_group_symop_operation_xyz
  'x,y,z'
  '1/2+x,1/2+y,1/2+z'
  'z,1/2-x,1/2+y'
  '1/2+z,-x,+y'
  '-y,1/2+z,1/2-x'
  '1/2-y,+z,-x'
  'x,1/2-y,1/2+z'
  '1/2+x,-y,+z'
  '-z,1/2+x,1/2-y'
  '1/2-z,+x,-y'
  'y,1/2-z,1/2+x'
  '1/2+y,-z,+x'
  '-x,1/2+y,1/2-z'
  '1/2-x,+y,-z'
  '3/4+x,1/4-z,3/4-y'
  '1/4+x,3/4-z,1/4-y'
  '3/4-z,1/4+y,3/4+x'
  '1/4-z,3/4+y,1/4+x'
  '3/4+y,1/4-x,3/4-z'
  '1/4+y,3/4-x,1/4-z'
  '3/4-x,1/4+z,3/4+y'
  '1/4-x,3/4+z,1/4+y'
  '3/4+z,1/4-y,3/4-x'
  '1/4+z,3/4-y,1/4-x'
  '3/4-y,1/4+x,3/4+z'
  '1/4-y,3/4+x,1/4+z'
  '1/4+x,1/4+z,1/4+y'
  '3/4+x,3/4+z,3/4+y'
  '1/4-z,1/4-y,1/4-x'
  '3/4-z,3/4-y,3/4-x'
  '1/4+y,1/4+x,1/4+z'
  '3/4+y,3/4+x,3/4+z'
  '1/4-x,1/4-z,1/4-y'
  '3/4-x,3/4-z,3/4-y'
  '1/4+z,1/4+y,1/4+x'
  '3/4+z,3/4+y,3/4+x'
  '1/4-y,1/4-x,1/4-z'
  '3/4-y,3/4-x,3/4-z'
  '1/2+z,x,1/2-y'
  '+z,1/2+x,-y'
  '1/2-y,-z,1/2+x'
  '-y,1/2-z,+x'
  '1/2+x,y,1/2-z'
  '+x,1/2+y,-z'
  '1/2-z,-x,1/2+y'
  '-z,1/2-x,+y'
  '1/2+y,z,1/2-x'
  '+y,1/2+z,-x'
  '1/2-x,-y,1/2+z'
  '-x,1/2-y,+z'
  '1/2-z,1/2+x,y'
  '-z,+x,1/2+y'
  '1/2+y,1/2-z,-x'
  '+y,-z,1/2-x'
  '1/2-x,1/2+y,z'
  '-x,+y,1/2+z'
  '1/2+z,1/2-x,-y'
  '+z,-x,1/2-y'
  '1/2-y,1/2+z,x'
  '-y,+z,1/2+x'
  '1/2+x,1/2-y,-z'
  '+x,-y,1/2-z'
  '3/4-x,3/4+z,1/4-y'
  '1/4-x,1/4+z,3/4-y'
  '3/4+z,3/4-y,1/4+x'
  '1/4+z,1/4-y,3/4+x'
  '3/4-y,3/4+x,1/4-z'
  '1/4-y,1/4+x,3/4-z'
  '3/4+x,3/4-z,1/4+y'
  '1/4+x,1/4-z,3/4+y'
  '3/4-z,3/4+y,1/4-x'
  '1/4-z,1/4+y,3/4-x'
  '3/4+y,3/4-x,1/4+z'
  '1/4+y,1/4-x,3/4+z'
  '1/4-x,3/4-z,3/4+y'
  '3/4-x,1/4-z,1/4+y'
  '1/4+z,3/4+y,3/4-x'
  '3/4+z,1/4+y,1/4-x'
  '1/4-y,3/4-x,3/4+z'
  '3/4-y,1/4-x,1/4+z'
  '1/4+x,3/4+z,3/4-y'
  '3/4+x,1/4+z,1/4-y'
  '1/4-z,3/4-y,3/4+x'
  '3/4-z,1/4-y,1/4+x'
  '1/4+y,3/4+x,3/4-z'
  '3/4+y,1/4+x,1/4-z'
  '-z,-x,-y'
  '1/2-z,1/2-x,1/2-y'
  'y,z,x'
  '1/2+y,1/2+z,1/2+x'
  '-x,-y,-z'
  '1/2-x,1/2-y,1/2-z'
  'z,x,y'
  '1/2+z,1/2+x,1/2+y'
  '-y,-z,-x'
  '1/2-y,1/2-z,1/2-x'
loop_
_atom_site_label
_atom_site_fract_x
_atom_site_fract_y
_atom_site_fract_z
_atom_site_occupancy
_atom_site_U_iso_or_equiv
Cs   0.12500   0.12500   0.12500   0.70000   0.02153
Na   0.12500   0.12500   0.12500   0.30000   0.02153
Al   0.12500   0.66310   0.58690   0.33000   0.00380
Si   0.12500   0.66310   0.58690   0.67000   0.00380
O   0.10360   0.13330   0.72160   1.00000   0.02280
