data_global
_chemical_name_mineral 'Purpurite'
loop_
_publ_author_name
'Bjoerling C'
'Westgren A'
_journal_name_full 'Geologiska Foreningens i Stockholm Forhandlingar'
_journal_volume 60 
_journal_year 1938
_journal_page_first 67
_journal_page_last 72
_publ_section_title
;
 Minerals of the Varutrask pegmatite. IX. X-ray studies on triphylite,
 varulite, and their oxidation products
 _cod_database_code 1011230
;
_database_code_amcsd 0018097
_chemical_formula_sum '(Mn.65 Fe.35) P O4'
_cell_length_a 4.76
_cell_length_b 9.68
_cell_length_c 5.819
_cell_angle_alpha 90
_cell_angle_beta 90
_cell_angle_gamma 90
_cell_volume 268.121
_exptl_crystal_density_diffrn      3.722
_symmetry_space_group_name_H-M 'P m n 21'
loop_
_space_group_symop_operation_xyz
  'x,y,z'
  'x,y,1/2-z'
  '-x,-y,1/2+z'
  '1/2+x,1/2-y,1/2+z'
  '1/2-x,1/2+y,1/2-z'
  '1/2-x,1/2+y,z'
  '1/2+x,1/2-y,-z'
  '-x,-y,-z'
loop_
_atom_site_label
_atom_site_fract_x
_atom_site_fract_y
_atom_site_fract_z
_atom_site_occupancy
Mn1  -0.02780   0.27780   0.25000   0.65000
Fe1  -0.02780   0.27780   0.25000   0.35000
P1   0.41670   0.09720   0.25000   1.00000
O1  -0.25000   0.05560   0.25000   1.00000
O2   0.25000   0.44440   0.25000   1.00000
O3   0.19440   0.16670   0.02780   1.00000
