data_global
_chemical_name_mineral 'Rubicline'
loop_
_publ_author_name
'Gasperin M'
_journal_name_full 'Acta Crystallographica, Section B'
_journal_volume 27 
_journal_year 1971
_journal_page_first 854
_journal_page_last 855
_publ_section_title
;
 Structure cristalline de RbAlSi3O8
 _cod_database_code 1001771
;
_database_code_amcsd 0009393
_chemical_formula_sum 'Rb (Al Si3) O8'
_cell_length_a 8.82
_cell_length_b 12.992
_cell_length_c 7.161
_cell_angle_alpha 90
_cell_angle_beta 116.4
_cell_angle_gamma 90
_cell_volume 734.999
_exptl_crystal_density_diffrn      2.934
_symmetry_space_group_name_H-M 'C 2/m'
loop_
_space_group_symop_operation_xyz
  'x,y,z'
  '1/2+x,1/2+y,z'
  'x,-y,z'
  '1/2+x,1/2-y,z'
  '-x,y,-z'
  '1/2-x,1/2+y,-z'
  '-x,-y,-z'
  '1/2-x,1/2-y,-z'
loop_
_atom_site_label
_atom_site_fract_x
_atom_site_fract_y
_atom_site_fract_z
_atom_site_occupancy
Rb1   0.29580   0.00000   0.14680   1.00000
Al1   0.01040   0.19040   0.22270   0.25000
Al2   0.72270   0.11950   0.34400   0.25000
Si1   0.01040   0.19040   0.22270   0.75000
Si2   0.72270   0.11950   0.34400   0.75000
O1   0.00000   0.15250   0.00000   1.00000
O2   0.66400   0.00000   0.28300   1.00000
O3   0.83200   0.15960   0.22600   1.00000
O4   0.04640   0.31450   0.26300   1.00000
O5   0.16820   0.12830   0.40300   1.00000
