data_global
_chemical_name_mineral 'Sekaninaite'
loop_
_publ_author_name
'Hochella M F'
'Brown G E'
'Ross F K'
'Gibbs G V'
_journal_name_full 'American Mineralogist'
_journal_volume 64 
_journal_year 1979
_journal_page_first 337
_journal_page_last 351
_publ_section_title
;
 High-temperature crystal chemistry of hydrous Mg- and Fe-cordierite
 Dolni Bory, T = 24 C
;
_database_code_amcsd 0000709
_chemical_formula_sum '(Mg.34 Fe1.66) Al4 Si5 O18'
_cell_length_a 17.230
_cell_length_b 9.835
_cell_length_c 9.314
_cell_angle_alpha 90
_cell_angle_beta 90
_cell_angle_gamma 90
_cell_volume 1578.323
_exptl_crystal_density_diffrn      2.682
_symmetry_space_group_name_H-M 'C c c m'
loop_
_space_group_symop_operation_xyz
  'x,y,z'
  '1/2+x,1/2+y,z'
  'x,-y,1/2+z'
  '1/2+x,1/2-y,1/2+z'
  '-x,y,1/2-z'
  '1/2-x,1/2+y,1/2-z'
  '-x,y,1/2+z'
  '1/2-x,1/2+y,1/2+z'
  'x,-y,1/2-z'
  '1/2+x,1/2-y,1/2-z'
  'x,y,-z'
  '1/2+x,1/2+y,-z'
  '-x,-y,z'
  '1/2-x,1/2-y,z'
  '-x,-y,-z'
  '1/2-x,1/2-y,-z'
loop_
_atom_site_label
_atom_site_fract_x
_atom_site_fract_y
_atom_site_fract_z
_atom_site_occupancy
Mg   0.16320   0.50000   0.25000   0.17000
Fe   0.16320   0.50000   0.25000   0.83000
Al11   0.25000   0.25000   0.25020   1.00000
Si16   0.00000   0.50000   0.25000   1.00000
Si21   0.19010   0.07940   0.00000   1.00000
Al26   0.05010   0.30760   0.00000   1.00000
Si23  -0.13470   0.23430   0.00000   1.00000
O11   0.24420   0.10520   0.14150   1.00000
O16   0.06110   0.41440   0.15220   1.00000
O13  -0.17290   0.30530   0.14280   1.00000
O21   0.11880   0.18220   0.00000   1.00000
O26  -0.04350   0.24490   0.00000   1.00000
O23  -0.16150   0.07780   0.00000   1.00000
loop_
_atom_site_aniso_label
_atom_site_aniso_U_11
_atom_site_aniso_U_22
_atom_site_aniso_U_33
_atom_site_aniso_U_12
_atom_site_aniso_U_13
_atom_site_aniso_U_23
Mg 0.00707 0.00583 0.00712 0.00000 0.00000 0.00056
Fe 0.00707 0.00583 0.00712 0.00000 0.00000 0.00056
Al11 0.00617 0.00510 0.00281 0.00120 0.00000 0.00000
Si16 0.00466 0.00598 0.00193 0.00000 0.00000 0.00000
Si21 0.00556 0.00186 0.00281 0.00103 0.00000 0.00000
Al26 0.00496 0.00314 0.00303 0.00112 0.00000 0.00000
Si23 0.00511 0.00211 0.00321 -0.00189 0.00000 0.00000
O11 0.01038 0.00632 0.00409 -0.00129 -0.00358 -0.00158
O16 0.01053 0.01014 0.00589 0.00258 0.00187 -0.00269
O13 0.01203 0.00911 0.00413 -0.00180 0.00024 -0.00390
O21 0.01083 0.00862 0.01776 0.00567 0.00000 0.00000
O26 0.00602 0.01779 0.02171 -0.00137 0.00000 0.00000
O23 0.01354 0.00495 0.01679 0.00060 0.00000 0.00000
