data_global
_chemical_name_mineral 'Sohngeite'
loop_
_publ_author_name
'Scott J D'
_journal_name_full 'American Mineralogist'
_journal_volume 56 
_journal_year 1971
_journal_page_first 355
_journal_page_last 355
_publ_section_title
;
 Crystal structure of a new mineral, sohngeite
;
_database_code_amcsd 0000223
_chemical_formula_sum 'Ga (O3 H3)'
_cell_length_a 7.4865
_cell_length_b 7.4379
_cell_length_c 7.4963
_cell_angle_alpha 90
_cell_angle_beta 90
_cell_angle_gamma 90
_cell_volume 417.423
_exptl_crystal_density_diffrn      3.843
_symmetry_space_group_name_H-M 'P m n 21'
loop_
_space_group_symop_operation_xyz
  'x,y,z'
  '1/2+x,-y,1/2+z'
  '-x,y,z'
  '1/2-x,-y,1/2+z'
loop_
_atom_site_label
_atom_site_fract_x
_atom_site_fract_y
_atom_site_fract_z
Ga1   0.25000   0.25000   0.25000
Ga2   0.25000   0.25000   0.75000
O-H1   0.25000   0.25000   0.00000
O-H2   0.25000   0.25000   0.50000
O-H3   0.00000   0.25000   0.30000
O-H4   0.25000   0.00000   0.30000
O-H5   0.25000   0.50000   0.30000
O-H6   0.50000   0.25000   0.30000
O-H7   0.00000   0.75000   0.30000
O-H8   0.50000   0.75000   0.30000
