data_global
_chemical_name_mineral 'Sukulaite'
loop_
_publ_author_name
'Gasperin M'
_journal_name_full 'Comptes Rendus Hebdomadaires des Seances de l'Academie des Sciences'
_journal_volume 240 
_journal_year 1955
_journal_page_first 2340
_journal_page_last 2342
_publ_section_title
;
 Synthese et identification de deux oxydes doubles de tantale et d'etain
 _cod_database_code 1001775
;
_database_code_amcsd 0012253
_chemical_formula_sum 'Sn Ta O3'
_cell_length_a 3.880
_cell_length_b 3.880
_cell_length_c 3.880
_cell_angle_alpha 90
_cell_angle_beta 90
_cell_angle_gamma 90
_cell_volume 58.411
_exptl_crystal_density_diffrn      9.883
_symmetry_space_group_name_H-M 'P m -3 m'
loop_
_space_group_symop_operation_xyz
  'x,y,z'
  'z,-x,y'
  '-y,z,-x'
  'x,-y,z'
  '-z,x,-y'
  'y,-z,x'
  '-x,y,-z'
  'x,-z,-y'
  '-z,y,x'
  'y,-x,-z'
  '-x,z,y'
  'z,-y,-x'
  '-y,x,z'
  'x,z,y'
  '-z,-y,-x'
  'y,x,z'
  '-x,-z,-y'
  'z,y,x'
  '-y,-x,-z'
  'z,x,-y'
  '-y,-z,x'
  'x,y,-z'
  '-z,-x,y'
  'y,z,-x'
  '-x,-y,z'
  '-z,x,y'
  'y,-z,-x'
  '-x,y,z'
  'z,-x,-y'
  '-y,z,x'
  'x,-y,-z'
  '-x,z,-y'
  'z,-y,x'
  '-y,x,-z'
  'x,-z,y'
  '-z,y,-x'
  'y,-x,z'
  '-x,-z,y'
  'z,y,-x'
  '-y,-x,z'
  'x,z,-y'
  '-z,-y,x'
  'y,x,-z'
  '-z,-x,-y'
  'y,z,x'
  '-x,-y,-z'
  'z,x,y'
  '-y,-z,-x'
loop_
_atom_site_label
_atom_site_fract_x
_atom_site_fract_y
_atom_site_fract_z
Sn1   0.00000   0.00000   0.00000
Ta1   0.50000   0.50000   0.50000
O1   0.00000   0.50000   0.50000
