data_global
_chemical_name_mineral 'Sulphohalite'
loop_
_publ_author_name
'Pabst A'
_journal_name_full 'Zeitschrift fur Kristallographie'
_journal_volume 89 
_journal_year 1934
_journal_page_first 514
_journal_page_last 517
_publ_section_title
;
 The crystal structure of sulphohalite
;
_database_code_amcsd 0010549
_chemical_formula_sum 'Na6 S2 O8 Cl F'
_cell_length_a 10.08
_cell_length_b 10.08
_cell_length_c 10.08
_cell_angle_alpha 90
_cell_angle_beta 90
_cell_angle_gamma 90
_cell_volume 1024.193
_exptl_crystal_density_diffrn      2.494
_symmetry_space_group_name_H-M 'F m -3 m'
loop_
_space_group_symop_operation_xyz
  'x,y,z'
  'x,1/2+y,1/2+z'
  '1/2+x,y,1/2+z'
  '1/2+x,1/2+y,z'
  'z,-x,y'
  'z,1/2-x,1/2+y'
  '1/2+z,-x,1/2+y'
  '1/2+z,1/2-x,y'
  '-y,z,-x'
  '-y,1/2+z,1/2-x'
  '1/2-y,z,1/2-x'
  '1/2-y,1/2+z,-x'
  'x,-y,z'
  'x,1/2-y,1/2+z'
  '1/2+x,-y,1/2+z'
  '1/2+x,1/2-y,z'
  '-z,x,-y'
  '-z,1/2+x,1/2-y'
  '1/2-z,x,1/2-y'
  '1/2-z,1/2+x,-y'
  'y,-z,x'
  'y,1/2-z,1/2+x'
  '1/2+y,-z,1/2+x'
  '1/2+y,1/2-z,x'
  '-x,y,-z'
  '-x,1/2+y,1/2-z'
  '1/2-x,y,1/2-z'
  '1/2-x,1/2+y,-z'
  'x,-z,-y'
  'x,1/2-z,1/2-y'
  '1/2+x,-z,1/2-y'
  '1/2+x,1/2-z,-y'
  '-z,y,x'
  '-z,1/2+y,1/2+x'
  '1/2-z,y,1/2+x'
  '1/2-z,1/2+y,x'
  'y,-x,-z'
  'y,1/2-x,1/2-z'
  '1/2+y,-x,1/2-z'
  '1/2+y,1/2-x,-z'
  '-x,z,y'
  '-x,1/2+z,1/2+y'
  '1/2-x,z,1/2+y'
  '1/2-x,1/2+z,y'
  'z,-y,-x'
  'z,1/2-y,1/2-x'
  '1/2+z,-y,1/2-x'
  '1/2+z,1/2-y,-x'
  '-y,x,z'
  '-y,1/2+x,1/2+z'
  '1/2-y,x,1/2+z'
  '1/2-y,1/2+x,z'
  'x,z,y'
  'x,1/2+z,1/2+y'
  '1/2+x,z,1/2+y'
  '1/2+x,1/2+z,y'
  '-z,-y,-x'
  '-z,1/2-y,1/2-x'
  '1/2-z,-y,1/2-x'
  '1/2-z,1/2-y,-x'
  'y,x,z'
  'y,1/2+x,1/2+z'
  '1/2+y,x,1/2+z'
  '1/2+y,1/2+x,z'
  '-x,-z,-y'
  '-x,1/2-z,1/2-y'
  '1/2-x,-z,1/2-y'
  '1/2-x,1/2-z,-y'
  'z,y,x'
  'z,1/2+y,1/2+x'
  '1/2+z,y,1/2+x'
  '1/2+z,1/2+y,x'
  '-y,-x,-z'
  '-y,1/2-x,1/2-z'
  '1/2-y,-x,1/2-z'
  '1/2-y,1/2-x,-z'
  'z,x,-y'
  'z,1/2+x,1/2-y'
  '1/2+z,x,1/2-y'
  '1/2+z,1/2+x,-y'
  '-y,-z,x'
  '-y,1/2-z,1/2+x'
  '1/2-y,-z,1/2+x'
  '1/2-y,1/2-z,x'
  'x,y,-z'
  'x,1/2+y,1/2-z'
  '1/2+x,y,1/2-z'
  '1/2+x,1/2+y,-z'
  '-z,-x,y'
  '-z,1/2-x,1/2+y'
  '1/2-z,-x,1/2+y'
  '1/2-z,1/2-x,y'
  'y,z,-x'
  'y,1/2+z,1/2-x'
  '1/2+y,z,1/2-x'
  '1/2+y,1/2+z,-x'
  '-x,-y,z'
  '-x,1/2-y,1/2+z'
  '1/2-x,-y,1/2+z'
  '1/2-x,1/2-y,z'
  '-z,x,y'
  '-z,1/2+x,1/2+y'
  '1/2-z,x,1/2+y'
  '1/2-z,1/2+x,y'
  'y,-z,-x'
  'y,1/2-z,1/2-x'
  '1/2+y,-z,1/2-x'
  '1/2+y,1/2-z,-x'
  '-x,y,z'
  '-x,1/2+y,1/2+z'
  '1/2-x,y,1/2+z'
  '1/2-x,1/2+y,z'
  'z,-x,-y'
  'z,1/2-x,1/2-y'
  '1/2+z,-x,1/2-y'
  '1/2+z,1/2-x,-y'
  '-y,z,x'
  '-y,1/2+z,1/2+x'
  '1/2-y,z,1/2+x'
  '1/2-y,1/2+z,x'
  'x,-y,-z'
  'x,1/2-y,1/2-z'
  '1/2+x,-y,1/2-z'
  '1/2+x,1/2-y,-z'
  '-x,z,-y'
  '-x,1/2+z,1/2-y'
  '1/2-x,z,1/2-y'
  '1/2-x,1/2+z,-y'
  'z,-y,x'
  'z,1/2-y,1/2+x'
  '1/2+z,-y,1/2+x'
  '1/2+z,1/2-y,x'
  '-y,x,-z'
  '-y,1/2+x,1/2-z'
  '1/2-y,x,1/2-z'
  '1/2-y,1/2+x,-z'
  'x,-z,y'
  'x,1/2-z,1/2+y'
  '1/2+x,-z,1/2+y'
  '1/2+x,1/2-z,y'
  '-z,y,-x'
  '-z,1/2+y,1/2-x'
  '1/2-z,y,1/2-x'
  '1/2-z,1/2+y,-x'
  'y,-x,z'
  'y,1/2-x,1/2+z'
  '1/2+y,-x,1/2+z'
  '1/2+y,1/2-x,z'
  '-x,-z,y'
  '-x,1/2-z,1/2+y'
  '1/2-x,-z,1/2+y'
  '1/2-x,1/2-z,y'
  'z,y,-x'
  'z,1/2+y,1/2-x'
  '1/2+z,y,1/2-x'
  '1/2+z,1/2+y,-x'
  '-y,-x,z'
  '-y,1/2-x,1/2+z'
  '1/2-y,-x,1/2+z'
  '1/2-y,1/2-x,z'
  'x,z,-y'
  'x,1/2+z,1/2-y'
  '1/2+x,z,1/2-y'
  '1/2+x,1/2+z,-y'
  '-z,-y,x'
  '-z,1/2-y,1/2+x'
  '1/2-z,-y,1/2+x'
  '1/2-z,1/2-y,x'
  'y,x,-z'
  'y,1/2+x,1/2-z'
  '1/2+y,x,1/2-z'
  '1/2+y,1/2+x,-z'
  '-z,-x,-y'
  '-z,1/2-x,1/2-y'
  '1/2-z,-x,1/2-y'
  '1/2-z,1/2-x,-y'
  'y,z,x'
  'y,1/2+z,1/2+x'
  '1/2+y,z,1/2+x'
  '1/2+y,1/2+z,x'
  '-x,-y,-z'
  '-x,1/2-y,1/2-z'
  '1/2-x,-y,1/2-z'
  '1/2-x,1/2-y,-z'
  'z,x,y'
  'z,1/2+x,1/2+y'
  '1/2+z,x,1/2+y'
  '1/2+z,1/2+x,y'
  '-y,-z,-x'
  '-y,1/2-z,1/2-x'
  '1/2-y,-z,1/2-x'
  '1/2-y,1/2-z,-x'
loop_
_atom_site_label
_atom_site_fract_x
_atom_site_fract_y
_atom_site_fract_z
Na   0.22600   0.00000   0.00000
S   0.25000   0.25000   0.25000
O   0.16400   0.16400   0.16400
Cl   0.50000   0.50000   0.50000
F   0.00000   0.00000   0.00000
