data_global
_chemical_name_mineral 'Tanteuxenite-(Ho)'
loop_
_publ_author_name
'Thorogood G J'
'Avdeev M'
'Kennedy B J'
_journal_name_full 'Solid State Sciences'
_journal_volume 12 
_journal_year 2010
_journal_page_first 1263
_journal_page_last 1269
_publ_section_title
;
 Structural studies of the aeschynite-euxenite transformation in
 the series Ln(TiTa)O6 Ln = lanthanide
;
_database_code_amcsd 0018928
_chemical_compound_source 'Synthetic'
_chemical_formula_sum 'Ho (Ti Ta) O6'
_cell_length_a 14.6236
_cell_length_b 5.5637
_cell_length_c 5.2030
_cell_angle_alpha 90
_cell_angle_beta 90
_cell_angle_gamma 90
_cell_volume 423.323
_exptl_crystal_density_diffrn      7.685
_symmetry_space_group_name_H-M 'P b c n'
loop_
_space_group_symop_operation_xyz
  'x,y,z'
  'x,-y,1/2+z'
  '-x,y,1/2-z'
  '1/2-x,1/2+y,z'
  '1/2+x,1/2-y,-z'
  '1/2+x,1/2+y,1/2-z'
  '1/2-x,1/2-y,1/2+z'
  '-x,-y,-z'
loop_
_atom_site_label
_atom_site_fract_x
_atom_site_fract_y
_atom_site_fract_z
_atom_site_occupancy
_atom_site_U_iso_or_equiv
Ho   0.00000   0.23210   0.25000   1.00000   0.00393
Ti   0.16820   0.32280   0.82240   0.50000   0.01267
Ta   0.16820   0.32280   0.82240   0.50000   0.01267
O1   0.90700   0.56120   0.46670   1.00000   0.01381
O2   0.08890   0.09570   0.91510   1.00000   0.00507
O3   0.25790   0.14340   0.66030   1.00000   0.02381
