data_global
_chemical_name_mineral 'Tetrahedrite-(Zn)'
loop_
_publ_author_name
'Rozhdestvenskaya I V'
'Zayakina N V'
'Samusikov V P'
_journal_name_full 'Mineralogiceskij Zhurnal'
_journal_volume 15 
_journal_year 1993
_journal_page_first 9
_journal_page_last 17
_publ_section_title
;
 Crystal structure features of minerals from a series of
 tetrahedrite-freibergite
 Sample: 1
;
_database_code_amcsd 0014607
_chemical_formula_sum 'Cu9.9 Ag.06 Zn1.86 Fe.06 Sb3.88 S13'
_cell_length_a 10.382
_cell_length_b 10.382
_cell_length_c 10.382
_cell_angle_alpha 90
_cell_angle_beta 90
_cell_angle_gamma 90
_cell_volume 1119.034
_exptl_crystal_density_diffrn      4.896
_symmetry_space_group_name_H-M 'I -4 3 m'
loop_
_space_group_symop_operation_xyz
  'x,y,z'
  '1/2+x,1/2+y,1/2+z'
  '-z,x,-y'
  '1/2-z,1/2+x,1/2-y'
  '-y,z,-x'
  '1/2-y,1/2+z,1/2-x'
  '-x,y,-z'
  '1/2-x,1/2+y,1/2-z'
  'x,-z,-y'
  '1/2+x,1/2-z,1/2-y'
  'z,-y,-x'
  '1/2+z,1/2-y,1/2-x'
  'y,-x,-z'
  '1/2+y,1/2-x,1/2-z'
  'x,z,y'
  '1/2+x,1/2+z,1/2+y'
  'z,y,x'
  '1/2+z,1/2+y,1/2+x'
  'y,x,z'
  '1/2+y,1/2+x,1/2+z'
  '-z,-x,y'
  '1/2-z,1/2-x,1/2+y'
  '-y,-z,x'
  '1/2-y,1/2-z,1/2+x'
  '-x,-y,z'
  '1/2-x,1/2-y,1/2+z'
  'z,-x,-y'
  '1/2+z,1/2-x,1/2-y'
  'y,-z,-x'
  '1/2+y,1/2-z,1/2-x'
  'x,-y,-z'
  '1/2+x,1/2-y,1/2-z'
  '-x,z,-y'
  '1/2-x,1/2+z,1/2-y'
  '-z,y,-x'
  '1/2-z,1/2+y,1/2-x'
  '-y,x,-z'
  '1/2-y,1/2+x,1/2-z'
  '-x,-z,y'
  '1/2-x,1/2-z,1/2+y'
  '-z,-y,x'
  '1/2-z,1/2-y,1/2+x'
  '-y,-x,z'
  '1/2-y,1/2-x,1/2+z'
  'z,x,y'
  '1/2+z,1/2+x,1/2+y'
  'y,z,x'
  '1/2+y,1/2+z,1/2+x'
loop_
_atom_site_label
_atom_site_fract_x
_atom_site_fract_y
_atom_site_fract_z
_atom_site_occupancy
_atom_site_U_iso_or_equiv
CuM2   0.21630   0.00000   0.00000   0.97000   0.05535
AgM2   0.21630   0.00000   0.00000   0.01000   0.05535
CuM1   0.25000   0.50000   0.00000   0.68000   0.01608
ZnM1   0.25000   0.50000   0.00000   0.31000   0.01608
FeM1   0.25000   0.50000   0.00000   0.01000   0.01608
Sb   0.26810   0.26810   0.26810   0.97000   0.01393
S1   0.11600   0.11600   0.36120   1.00000   0.01267
S2   0.00000   0.00000   0.00000   1.00000   0.02026
