data_global
_chemical_name_mineral 'Todorokite'
loop_
_publ_author_name
'Post J E'
'Bish D L'
_journal_name_full 'American Mineralogist'
_journal_volume 73 
_journal_year 1988
_journal_page_first 861
_journal_page_last 869
_publ_section_title
;
 Rietveld refinement of the todorokite structure
 Sample: South Africa Ka
;
_database_code_amcsd 0001188
_chemical_formula_sum 'Mn6 O15.16 H3.16'
_cell_length_a 9.764
_cell_length_b 2.8416
_cell_length_c 9.551
_cell_angle_alpha 90
_cell_angle_beta 94.06
_cell_angle_gamma 90
_cell_volume 264.331
_exptl_crystal_density_diffrn      3.614
_symmetry_space_group_name_H-M 'P 3 1 2'
loop_
_space_group_symop_operation_xyz
  'x,y,z'
  'x,-y,z'
  '-x,y,-z'
  '-x,-y,-z'
loop_
_atom_site_label
_atom_site_fract_x
_atom_site_fract_y
_atom_site_fract_z
_atom_site_occupancy
_atom_site_U_iso_or_equiv
Mn1   0.50000   0.50000   0.00000   1.00000   0.01013
Mn2   0.76400   0.00000   0.00200   1.00000   0.01013
Mn3   0.00000   0.00000   0.50000   1.00000   0.01013
Mn4   0.97400   0.50000   0.76500   1.00000   0.01013
O1   0.17800   0.50000   0.11900   1.00000   0.01267
O2   0.41800   0.00000   0.07900   1.00000   0.01267
O3   0.66500   0.50000   0.09000   1.00000   0.01267
O4   0.91700   0.00000   0.15000   1.00000   0.01267
O5   0.91300   0.50000   0.40700   1.00000   0.01267
O6   0.88000   0.00000   0.64900   1.00000   0.01267
O-H7   0.36300   0.00000   0.35300   0.92000   0.06333
O-H8   0.69600   0.50000   0.38000   0.42000   0.06333
O-H9   0.50000   0.50000   0.50000   0.48000   0.06333
