data_global
_chemical_name_mineral 'Weishanite'
loop_
_publ_author_name
'Rolfe C'
'Hume-Rothery W'
_journal_name_full 'Journal of the Less-Common Metals'
_journal_volume 13 
_journal_year 1967
_journal_page_first 1
_journal_page_last 10
_publ_section_title
;
 The constitution of alloys of gold and mercury
;
_database_code_amcsd 0014132
_chemical_formula_sum '(Au.75 Hg.25)'
_cell_length_a 2.9180
_cell_length_b 2.9180
_cell_length_c 4.8113
_cell_angle_alpha 90
_cell_angle_beta 90
_cell_angle_gamma 120
_cell_volume 35.478
_exptl_crystal_density_diffrn     18.523
_symmetry_space_group_name_H-M 'P 63/m m c'
loop_
_space_group_symop_operation_xyz
  'x,y,z'
  '-x,-x+y,1/2+z'
  'x,x-y,1/2-z'
  '-x+y,-x,1/2-z'
  'x-y,x,1/2+z'
  '-y,-x,z'
  'y,x,-z'
  'y,-x+y,-z'
  '-y,x-y,z'
  'x-y,-y,1/2+z'
  '-x+y,y,1/2-z'
  'x,y,1/2-z'
  '-x,-y,1/2+z'
  'x,x-y,z'
  '-x,-x+y,-z'
  'x-y,x,-z'
  '-x+y,-x,z'
  'y,x,1/2+z'
  '-y,-x,1/2-z'
  '-y,x-y,1/2-z'
  'y,-x+y,1/2+z'
  '-x+y,y,z'
  'x-y,-y,-z'
  '-x,-y,-z'
loop_
_atom_site_label
_atom_site_fract_x
_atom_site_fract_y
_atom_site_fract_z
_atom_site_occupancy
Au   0.33333   0.66667   0.25000   0.75000
Hg   0.33333   0.66667   0.25000   0.25000
