data_global
_chemical_name_mineral 'Xuite'
loop_
_publ_author_name
'Lee S'
'Guo X'
_journal_name_full 'American Mineralogist'
_journal_volume 107 
_journal_year 2022
_journal_page_first 930
_journal_page_last 935
_publ_section_title
;
 Xuite, Ca3Fe2[(Al,Fe)O3(OH)]3, a new mineral of the garnet group:
 Implications for the wide occurrence of nanominerals
;
_database_code_amcsd 0021062
_chemical_compound_source 'Menan volcanic Complex, Idaho, USA'
_chemical_formula_sum '(Ca2.76 Mg.24) Fe2.91 Ti.08 Al1.29 Si.15 H4.44 O12'
_cell_length_a 12.5056
_cell_length_b 12.5056
_cell_length_c 12.5056
_cell_angle_alpha 90
_cell_angle_beta 90
_cell_angle_gamma 90
_cell_volume 1955.751
_exptl_crystal_density_diffrn      3.520
_symmetry_space_group_name_H-M 'I a -3 d'
loop_
_space_group_symop_operation_xyz
  'x,y,z'
  '1/2+x,1/2+y,1/2+z'
  'z,1/2-x,1/2+y'
  '1/2+z,-x,+y'
  '-y,1/2+z,1/2-x'
  '1/2-y,+z,-x'
  'x,1/2-y,1/2+z'
  '1/2+x,-y,+z'
  '-z,1/2+x,1/2-y'
  '1/2-z,+x,-y'
  'y,1/2-z,1/2+x'
  '1/2+y,-z,+x'
  '-x,1/2+y,1/2-z'
  '1/2-x,+y,-z'
  '3/4+x,1/4-z,3/4-y'
  '1/4+x,3/4-z,1/4-y'
  '3/4-z,1/4+y,3/4+x'
  '1/4-z,3/4+y,1/4+x'
  '3/4+y,1/4-x,3/4-z'
  '1/4+y,3/4-x,1/4-z'
  '3/4-x,1/4+z,3/4+y'
  '1/4-x,3/4+z,1/4+y'
  '3/4+z,1/4-y,3/4-x'
  '1/4+z,3/4-y,1/4-x'
  '3/4-y,1/4+x,3/4+z'
  '1/4-y,3/4+x,1/4+z'
  '1/4+x,1/4+z,1/4+y'
  '3/4+x,3/4+z,3/4+y'
  '1/4-z,1/4-y,1/4-x'
  '3/4-z,3/4-y,3/4-x'
  '1/4+y,1/4+x,1/4+z'
  '3/4+y,3/4+x,3/4+z'
  '1/4-x,1/4-z,1/4-y'
  '3/4-x,3/4-z,3/4-y'
  '1/4+z,1/4+y,1/4+x'
  '3/4+z,3/4+y,3/4+x'
  '1/4-y,1/4-x,1/4-z'
  '3/4-y,3/4-x,3/4-z'
  '1/2+z,x,1/2-y'
  '+z,1/2+x,-y'
  '1/2-y,-z,1/2+x'
  '-y,1/2-z,+x'
  '1/2+x,y,1/2-z'
  '+x,1/2+y,-z'
  '1/2-z,-x,1/2+y'
  '-z,1/2-x,+y'
  '1/2+y,z,1/2-x'
  '+y,1/2+z,-x'
  '1/2-x,-y,1/2+z'
  '-x,1/2-y,+z'
  '1/2-z,1/2+x,y'
  '-z,+x,1/2+y'
  '1/2+y,1/2-z,-x'
  '+y,-z,1/2-x'
  '1/2-x,1/2+y,z'
  '-x,+y,1/2+z'
  '1/2+z,1/2-x,-y'
  '+z,-x,1/2-y'
  '1/2-y,1/2+z,x'
  '-y,+z,1/2+x'
  '1/2+x,1/2-y,-z'
  '+x,-y,1/2-z'
  '3/4-x,3/4+z,1/4-y'
  '1/4-x,1/4+z,3/4-y'
  '3/4+z,3/4-y,1/4+x'
  '1/4+z,1/4-y,3/4+x'
  '3/4-y,3/4+x,1/4-z'
  '1/4-y,1/4+x,3/4-z'
  '3/4+x,3/4-z,1/4+y'
  '1/4+x,1/4-z,3/4+y'
  '3/4-z,3/4+y,1/4-x'
  '1/4-z,1/4+y,3/4-x'
  '3/4+y,3/4-x,1/4+z'
  '1/4+y,1/4-x,3/4+z'
  '1/4-x,3/4-z,3/4+y'
  '3/4-x,1/4-z,1/4+y'
  '1/4+z,3/4+y,3/4-x'
  '3/4+z,1/4+y,1/4-x'
  '1/4-y,3/4-x,3/4+z'
  '3/4-y,1/4-x,1/4+z'
  '1/4+x,3/4+z,3/4-y'
  '3/4+x,1/4+z,1/4-y'
  '1/4-z,3/4-y,3/4+x'
  '3/4-z,1/4-y,1/4+x'
  '1/4+y,3/4+x,3/4-z'
  '3/4+y,1/4+x,1/4-z'
  '-z,-x,-y'
  '1/2-z,1/2-x,1/2-y'
  'y,z,x'
  '1/2+y,1/2+z,1/2+x'
  '-x,-y,-z'
  '1/2-x,1/2-y,1/2-z'
  'z,x,y'
  '1/2+z,1/2+x,1/2+y'
  '-y,-z,-x'
  '1/2-y,1/2-z,1/2-x'
loop_
_atom_site_label
_atom_site_fract_x
_atom_site_fract_y
_atom_site_fract_z
_atom_site_occupancy
_atom_site_U_iso_or_equiv
Ca1   0.12500   0.00000   0.25000   0.92000   0.00940
Mg1   0.12500   0.00000   0.25000   0.08000   0.00940
Fe2   0.00000   0.00000   0.50000   0.96000   0.01370
Ti2   0.00000   0.00000   0.50000   0.04000   0.01370
Al3   0.50000   0.25000   0.12500   0.43000   0.06300
Fe3   0.50000   0.25000   0.12500   0.33000   0.06300
Si3   0.50000   0.25000   0.12500   0.05000   0.06300
H   0.14770   0.09090   0.82990   0.37000   0.03800
O   0.03510   0.05940   0.64590   1.00000   0.02190
